                  Welcome to Q-Chem
           with Periodic Boundary Condition
     A Quantum Leap Into The Future Of Chemistry

 Adam Rettig, Xintian Feng, Meng-Fu Chen, Hieu Dinh, Stephen Quiton,
 Anton Ni, Paul J. Robinson, Jinghong Zhang, Joonho Lee

Contributors to earlier versions of Q-Chem not listed above:
 Evgeny Epifanovsky, Leo Cunha, Jerome F. Gonthier, Kuan-Yu Liu
 Input file: /n/netscratch/joonholee_lab/Lab/hieudinh//mgo_slab_co_ghost_def2tzvp_omega_0.4_111.scratch20250917110420/mgo_slab_co_ghost_def2tzvp_omega_0.4_111.0
 Scratch folder: /n/netscratch/joonholee_lab/Lab/hieudinh//mgo_slab_co_ghost_def2tzvp_omega_0.4_111.scratch20250917110420
 Auxillary files located at: /n/home02/hieudinh/qcpbc/qcaux
 Q-Chem begins on Wed Sep 17 11:04:21 2025

 -------------------------------------------------------------
 User input:
 -------------------------------------------------------------
 $lattice
 3
 11.9443159104 0.0000000000 0.0000000000
 0.0000000000 11.9443159104 0.0000000000
 0.0000000000 0.0000000000 21.6602222298
 $end
 
 $unitcell
 ABSOLUTE
 0 1
 @C   1.4930428341    1.4930432491    5.5284856213
 Mg   0.0000000000    0.0000000000    1.0000000000
 Mg   8.9582369328    5.9721579552    1.0000000000
 Mg   2.9860789776    5.9721579552    1.0000000000
 Mg   2.9860789776    8.9582369328    1.0000000000
 Mg   5.9721579552    0.0000000000    1.0000000000
 Mg   5.9721579552    2.9860789776    1.0000000000
 Mg   5.9721579552    5.9721579552    1.0000000000
 Mg   8.9582369328    2.9860789776    1.0000000000
 Mg   5.9721579552    8.9582369328    1.0000000000
 Mg   8.9582369328    0.0000000000    1.0000000000
 Mg   2.9860789776    2.9860789776    1.0000000000
 Mg   8.9582369328    8.9582369328    1.0000000000
 Mg   0.0000000000    8.9582369328    1.0000000000
 Mg   0.0000000000    2.9860789776    1.0000000000
 Mg   0.0000000000    5.9721579552    1.0000000000
 Mg   2.9860789776    0.0000000000    1.0000000000
 Mg   1.4930343349    1.4930374153    3.1511187175
 Mg   7.4651977897   10.4517004415    3.1114386205
 Mg   7.4651969790    7.4651968898    3.1112699448
 Mg   1.4930327857    4.4811832720    3.1056362779
 Mg   7.4651966404    4.4786922443    3.1114383107
 Mg   4.4811624032    1.4930368520    3.1056318890
 Mg  10.4496839597    4.4807048989    3.1095898700
 Mg   1.4930399629    7.4651963524    3.1116080311
 Mg  10.4496925734   10.4496968378    3.1095846708
 Mg   4.4807088948   10.4496904623    3.1095885984
 Mg   4.4786954624    7.4651978298    3.1114386978
 Mg   1.4930424686   10.4492084126    3.1056383774
 Mg  10.4516980458    7.4651970662    3.1114406695
 Mg   4.4807013212    4.4807040921    3.1095854125
 Mg   7.4651986133    1.4930389816    3.1116104730
 Mg  10.4492249714    1.4930441995    3.1056280117
 O  10.4512759328    1.4930390000    1.0000000000
 O   4.4791179776   10.4512759328    1.0000000000
 O   7.4651969552    1.4930390000    1.0000000000
 O   4.4791179776    4.4791179776    1.0000000000
 O  10.4512759328    4.4791179776    1.0000000000
 O   7.4651969552    7.4651969552    1.0000000000
 O   7.4651969552   10.4512759328    1.0000000000
 O   7.4651969552    4.4791179776    1.0000000000
 O   4.4791179776    7.4651969552    1.0000000000
 O   1.4930390000   10.4512759328    1.0000000000
 O  10.4512759328    7.4651969552    1.0000000000
 O   1.4930390000    4.4791179776    1.0000000000
 O   1.4930390000    7.4651969552    1.0000000000
 O   1.4930390000    1.4930390000    1.0000000000
 O   4.4791179776    1.4930390000    1.0000000000
 O  10.4512759328   10.4512759328    1.0000000000
 O   8.9580238897    5.9723685818    3.1594644112
 O   8.9570961456    2.9857717252    3.1600752389
 O   8.9570985067    0.0003085838    3.1600738373
 O   2.9857747423    8.9570945142    3.1600737733
 O   5.9723690642    5.9723696033    3.1594610725
 O   5.9732960489    2.9857717265    3.1600713997
 O   5.9732976356    0.0003062885    3.1600713024
 O   2.9857711850    5.9732998192    3.1600740469
 O   2.9950544541    2.9950623702    3.1548459568
 O   2.9950599166   -0.0089867212    3.1548507549
 O   0.0003060319    8.9570959750    3.1600745678
 O   0.0003045736    5.9732996331    3.1600758940
 O  -0.0089879078    2.9950667318    3.1548429191
 O  -0.0089805134   -0.0089799254    3.1548482730
 O   5.9723706153    8.9580251994    3.1594625961
 O   8.9580250454    8.9580263132    3.1594616543
 @O   1.4930495812    1.4930407413    6.6690780399
 $end
 
 $rem
 jobtype = sp
 method = pbe
 dft_d = 6
 scf_convergence = 5
 scf_guess = autosad
 scf_algorithm = gdm
 basis = def2-tzvp
 aux_basis = rij-def2-qzvp
 input_bohr = false
 do_nonortho true
 is_basis_uctr = false
 symmetry = false
 
 mp_mesh = [1,1,1]
 
 integral_direct true
 bvk_cgto true
 symmetry false
 rsdf_print_level 1
 
 thresh 14
 mem_total 500000
 threads 32
 
 MAX_SCF_CYCLES 500
 madelung = false
 omega 0.4
 do_rij_bigmem true
 automate_g true
 print_level 10
 grid_type_xc 1
 
 thresh_1e2c_sp 1e-14
 thresh_2e3c_bra_ket_sep 1e-10
 thresh_g 1e-12
 $end
 
 $rem_autosad
 incfock 1000
 scf_algorithm gdm_ls
 $end
 
 -------------------------------------------------------------
 Running PBC job

 Requested Exchange Correlation Functionals: 
  DFT Exchange:  1.00000 pbe_x
  DFT Correlation:  1.00000 pbe_c
 using 32 threads for computing.
 ---------------------------------------------------------------
      Coordinates of Atoms in Central Unit Cell (Angstroms)
    I     Atom         X            Y            Z
 ---------------------------------------------------------------
    1      @C      1.493043     1.493043     5.528486
    2      Mg      0.000000     0.000000     1.000000
    3      Mg      8.958237     5.972158     1.000000
    4      Mg      2.986079     5.972158     1.000000
    5      Mg      2.986079     8.958237     1.000000
    6      Mg      5.972158     0.000000     1.000000
    7      Mg      5.972158     2.986079     1.000000
    8      Mg      5.972158     5.972158     1.000000
    9      Mg      8.958237     2.986079     1.000000
   10      Mg      5.972158     8.958237     1.000000
   11      Mg      8.958237     0.000000     1.000000
   12      Mg      2.986079     2.986079     1.000000
   13      Mg      8.958237     8.958237     1.000000
   14      Mg      0.000000     8.958237     1.000000
   15      Mg      0.000000     2.986079     1.000000
   16      Mg      0.000000     5.972158     1.000000
   17      Mg      2.986079     0.000000     1.000000
   18      Mg      1.493034     1.493037     3.151119
   19      Mg      7.465198    10.451700     3.111439
   20      Mg      7.465197     7.465197     3.111270
   21      Mg      1.493033     4.481183     3.105636
   22      Mg      7.465197     4.478692     3.111438
   23      Mg      4.481162     1.493037     3.105632
   24      Mg     10.449684     4.480705     3.109590
   25      Mg      1.493040     7.465196     3.111608
   26      Mg     10.449693    10.449697     3.109585
   27      Mg      4.480709    10.449690     3.109589
   28      Mg      4.478695     7.465198     3.111439
   29      Mg      1.493042    10.449208     3.105638
   30      Mg     10.451698     7.465197     3.111441
   31      Mg      4.480701     4.480704     3.109585
   32      Mg      7.465199     1.493039     3.111610
   33      Mg     10.449225     1.493044     3.105628
   34       O     10.451276     1.493039     1.000000
   35       O      4.479118    10.451276     1.000000
   36       O      7.465197     1.493039     1.000000
   37       O      4.479118     4.479118     1.000000
   38       O     10.451276     4.479118     1.000000
   39       O      7.465197     7.465197     1.000000
   40       O      7.465197    10.451276     1.000000
   41       O      7.465197     4.479118     1.000000
   42       O      4.479118     7.465197     1.000000
   43       O      1.493039    10.451276     1.000000
   44       O     10.451276     7.465197     1.000000
   45       O      1.493039     4.479118     1.000000
   46       O      1.493039     7.465197     1.000000
   47       O      1.493039     1.493039     1.000000
   48       O      4.479118     1.493039     1.000000
   49       O     10.451276    10.451276     1.000000
   50       O      8.958024     5.972369     3.159464
   51       O      8.957096     2.985772     3.160075
   52       O      8.957099     0.000309     3.160074
   53       O      2.985775     8.957095     3.160074
   54       O      5.972369     5.972370     3.159461
   55       O      5.973296     2.985772     3.160071
   56       O      5.973298     0.000306     3.160071
   57       O      2.985771     5.973300     3.160074
   58       O      2.995054     2.995062     3.154846
   59       O      2.995060    -0.008987     3.154851
   60       O      0.000306     8.957096     3.160075
   61       O      0.000305     5.973300     3.160076
   62       O     -0.008988     2.995067     3.154843
   63       O     -0.008981    -0.008980     3.154848
   64       O      5.972371     8.958025     3.159463
   65       O      8.958025     8.958026     3.159462
   66      @O      1.493050     1.493041     6.669078
 ---------------------------------------------------------------
 --------------------------------------------------
              Lattice Vectors (Angstroms)
              X            Y            Z
 --------------------------------------------------
   X      11.944316     0.000000     0.000000
   Y       0.000000    11.944316     0.000000
   Z       0.000000     0.000000    21.660222
 --------------------------------------------------
 --------------------------------------------------
       Reciprocal Lattice Vectors (Angstroms^-1)
              X            Y            Z
 --------------------------------------------------
   X       0.526040     0.000000     0.000000
   Y       0.000000     0.526040     0.000000
   Z       0.000000     0.000000     0.290079
 --------------------------------------------------

 Single point calculation requested

 Hamiltonian contributions:
 List of terms in Hamiltonian: kpts_nn, kpts_kinetic, kpts_vnuc_df, kpts_xc, kpts_rij_bigmem, kpts_dftd3

 K-Points calculation started.

 Basis set information about using solid harmonic (1) or Cartesian (0):
  c : D(1) D(1) F(1) 
  o : D(1) D(1) F(1) 
  mg : D(1) D(1) D(1) 

 Basis set information about using solid harmonic (1) or Cartesian (0):
  c : D(1) D(1) D(1) F(1) G(1) 
  o : D(1) D(1) D(1) F(1) G(1) 
  mg : D(1) D(1) D(1) D(1) F(1) G(1) 

 There are 2078 basis functions in the central unit cell.
 Print atomic basis of atoms in the central unit cell:
 -------------------------------------------------------------
66 1480 1480 758

  2.82144204878407e+00  2.82144283302041e+00  1.04473237081885e+01
  0.00000000000000e+00  0.00000000000000e+00  1.88972612462577e+00
  1.69286143624996e+01  1.12857429083331e+01  1.88972612462577e+00
  5.64287145416653e+00  1.12857429083331e+01  1.88972612462577e+00
  5.64287145416653e+00  1.69286143624996e+01  1.88972612462577e+00
  1.12857429083331e+01  0.00000000000000e+00  1.88972612462577e+00
  1.12857429083331e+01  5.64287145416653e+00  1.88972612462577e+00
  1.12857429083331e+01  1.12857429083331e+01  1.88972612462577e+00
  1.69286143624996e+01  5.64287145416653e+00  1.88972612462577e+00
  1.12857429083331e+01  1.69286143624996e+01  1.88972612462577e+00
  1.69286143624996e+01  0.00000000000000e+00  1.88972612462577e+00
  5.64287145416653e+00  5.64287145416653e+00  1.88972612462577e+00
  1.69286143624996e+01  1.69286143624996e+01  1.88972612462577e+00
  0.00000000000000e+00  1.69286143624996e+01  1.88972612462577e+00
  0.00000000000000e+00  5.64287145416653e+00  1.88972612462577e+00
  0.00000000000000e+00  1.12857429083331e+01  1.88972612462577e+00
  5.64287145416653e+00  0.00000000000000e+00  1.88972612462577e+00
  2.82142598762379e+00  2.82143180873615e+00  5.95475136225700e+00
  1.41071792886946e+01  1.97508513710652e+01  5.87976684632842e+00
  1.41071777566937e+01  1.41071775881301e+01  5.87944809545154e+00
  2.82142306006008e+00  8.46820909833439e+00  5.86880200793317e+00
  1.41071771168324e+01  8.46350173821253e+00  5.87976626089126e+00
  8.46816966201784e+00  2.82143074425342e+00  5.86879371411418e+00
  1.97470407727280e+01  8.46730510419000e+00  5.87627321421065e+00
  2.82143662300242e+00  1.41071765725913e+01  5.88008698596503e+00
  1.97470570502619e+01  1.97470651088100e+01  5.87626338914658e+00
  8.46731265534662e+00  1.97470530608611e+01  5.87627081123491e+00
  8.46350781954017e+00  1.41071793644727e+01  5.87976699240425e+00
  2.82144135808917e+00  1.97461421189496e+01  5.86880597541317e+00
  1.97508468438484e+01  1.41071779214778e+01  5.87977071837725e+00
  8.46729834331684e+00  8.46730357955896e+00  5.87626479075645e+00
  1.41071808450731e+01  2.82143476861417e+00  5.88009160048725e+00
  1.97461734105465e+01  2.82144462901612e+00  5.86878638707908e+00
  1.97500491658847e+01  2.82143480338514e+00  1.88972612462577e+00
  8.46430625755166e+00  1.97500491658847e+01  1.88972612462577e+00
  1.41071777117182e+01  2.82143480338514e+00  1.88972612462577e+00
  8.46430625755166e+00  8.46430625755166e+00  1.88972612462577e+00
  1.97500491658847e+01  8.46430625755166e+00  1.88972612462577e+00
  1.41071777117182e+01  1.41071777117182e+01  1.88972612462577e+00
  1.41071777117182e+01  1.97500491658847e+01  1.88972612462577e+00
  1.41071777117182e+01  8.46430625755166e+00  1.88972612462577e+00
  8.46430625755166e+00  1.41071777117182e+01  1.88972612462577e+00
  2.82143480338514e+00  1.97500491658847e+01  1.88972612462577e+00
  1.97500491658847e+01  1.41071777117182e+01  1.88972612462577e+00
  2.82143480338514e+00  8.46430625755166e+00  1.88972612462577e+00
  2.82143480338514e+00  1.41071777117182e+01  1.88972612462577e+00
  2.82143480338514e+00  2.82143480338514e+00  1.88972612462577e+00
  8.46430625755166e+00  2.82143480338514e+00  1.88972612462577e+00
  1.97500491658847e+01  1.97500491658847e+01  1.88972612462577e+00
  1.69282117693878e+01  1.12861409349216e+01  5.97052243767002e+00
  1.69264585871251e+01  5.64229083127940e+00  5.97167673473235e+00
  1.69264630489575e+01  5.83138868496294e-04  5.97167408609222e+00
  5.64229653277209e+00  1.69264555042259e+01  5.97167396514974e+00
  1.12861418465255e+01  1.12861428652769e+01  5.97051612844141e+00
  1.12878935937302e+01  5.64229083373604e+00  5.97166947969581e+00
  1.12878965921587e+01  5.78801380122440e-04  5.97166929582546e+00
  5.64228981044934e+00  1.12879007185646e+01  5.97167448217881e+00
  5.65983264658954e+00  5.65984760585052e+00  5.96179482373494e+00
  5.65984296921850e+00 -1.69824418263683e-02  5.96180389082986e+00
  5.78316476398861e-04  1.69264582647378e+01  5.97167546653715e+00
  5.75560688791319e-04  1.12879003668866e+01  5.97167797269194e+00
 -1.69846841753877e-02  5.65985584807999e+00  5.96178908331389e+00
 -1.69707107845318e-02 -1.69695996255705e-02  5.96179920071859e+00
  1.12861447776797e+01  1.69282142443622e+01  5.97051900762813e+00
  1.69282139533443e+01  1.69282163491391e+01  5.97051722788406e+00
  2.82145479895521e+00  2.82143809396524e+00  1.26027309991671e+01

  1.35753496820000e+04
  2.03523336800000e+03
  4.63225623590000e+02
  1.31200195980000e+02
  4.28530158910000e+01
  1.55841857660000e+01
  6.20671385080000e+00
  2.57648965270000e+00
  5.76963394190000e-01
  2.29728313580000e-01
  9.51644400280000e-02
  3.46972322440000e+01
  7.95826228260000e+00
  2.37808268830000e+00
  8.14332081830000e-01
  2.88875472530000e-01
  1.00568236710000e-01
  1.09700000000000e+00
  3.18000000000000e-01
  7.61000000000000e-01
  3.14383495550000e+04
  4.71551533540000e+03
  1.07316292470000e+03
  3.03572387680000e+02
  9.86262510420000e+01
  3.49438084170000e+01
  1.28597851990000e+01
  6.48769130040000e+01
  1.97255207770000e+01
  2.89518043390000e+00
  1.19604547100000e+00
  5.43294511560000e-01
  1.00991040920000e-01
  3.68657280850000e-02
  1.79871896120000e+02
  4.21200693760000e+01
  1.31205030320000e+01
  4.62575036090000e+00
  1.66952110160000e+00
  5.85510121050000e-01
  1.89147961950000e-01
  5.37687551870000e-02
  3.44400000000000e+00
  2.90000000000000e-01
  7.00000000000000e-02
  3.14383495550000e+04
  4.71551533540000e+03
  1.07316292470000e+03
  3.03572387680000e+02
  9.86262510420000e+01
  3.49438084170000e+01
  1.28597851990000e+01
  6.48769130040000e+01
  1.97255207770000e+01
  2.89518043390000e+00
  1.19604547100000e+00
  5.43294511560000e-01
  1.00991040920000e-01
  3.68657280850000e-02
  1.79871896120000e+02
  4.21200693760000e+01
  1.31205030320000e+01
  4.62575036090000e+00
  1.66952110160000e+00
  5.85510121050000e-01
  1.89147961950000e-01
  5.37687551870000e-02
  3.44400000000000e+00
  2.90000000000000e-01
  7.00000000000000e-02
  3.14383495550000e+04
  4.71551533540000e+03
  1.07316292470000e+03
  3.03572387680000e+02
  9.86262510420000e+01
  3.49438084170000e+01
  1.28597851990000e+01
  6.48769130040000e+01
  1.97255207770000e+01
  2.89518043390000e+00
  1.19604547100000e+00
  5.43294511560000e-01
  1.00991040920000e-01
  3.68657280850000e-02
  1.79871896120000e+02
  4.21200693760000e+01
  1.31205030320000e+01
  4.62575036090000e+00
  1.66952110160000e+00
  5.85510121050000e-01
  1.89147961950000e-01
  5.37687551870000e-02
  3.44400000000000e+00
  2.90000000000000e-01
  7.00000000000000e-02
  3.14383495550000e+04
  4.71551533540000e+03
  1.07316292470000e+03
  3.03572387680000e+02
  9.86262510420000e+01
  3.49438084170000e+01
  1.28597851990000e+01
  6.48769130040000e+01
  1.97255207770000e+01
  2.89518043390000e+00
  1.19604547100000e+00
  5.43294511560000e-01
  1.00991040920000e-01
  3.68657280850000e-02
  1.79871896120000e+02
  4.21200693760000e+01
  1.31205030320000e+01
  4.62575036090000e+00
  1.66952110160000e+00
  5.85510121050000e-01
  1.89147961950000e-01
  5.37687551870000e-02
  3.44400000000000e+00
  2.90000000000000e-01
  7.00000000000000e-02
  3.14383495550000e+04
  4.71551533540000e+03
  1.07316292470000e+03
  3.03572387680000e+02
  9.86262510420000e+01
  3.49438084170000e+01
  1.28597851990000e+01
  6.48769130040000e+01
  1.97255207770000e+01
  2.89518043390000e+00
  1.19604547100000e+00
  5.43294511560000e-01
  1.00991040920000e-01
  3.68657280850000e-02
  1.79871896120000e+02
  4.21200693760000e+01
  1.31205030320000e+01
  4.62575036090000e+00
  1.66952110160000e+00
  5.85510121050000e-01
  1.89147961950000e-01
  5.37687551870000e-02
  3.44400000000000e+00
  2.90000000000000e-01
  7.00000000000000e-02
  3.14383495550000e+04
  4.71551533540000e+03
  1.07316292470000e+03
  3.03572387680000e+02
  9.86262510420000e+01
  3.49438084170000e+01
  1.28597851990000e+01
  6.48769130040000e+01
  1.97255207770000e+01
  2.89518043390000e+00
  1.19604547100000e+00
  5.43294511560000e-01
  1.00991040920000e-01
  3.68657280850000e-02
  1.79871896120000e+02
  4.21200693760000e+01
  1.31205030320000e+01
  4.62575036090000e+00
  1.66952110160000e+00
  5.85510121050000e-01
  1.89147961950000e-01
  5.37687551870000e-02
  3.44400000000000e+00
  2.90000000000000e-01
  7.00000000000000e-02
  3.14383495550000e+04
  4.71551533540000e+03
  1.07316292470000e+03
  3.03572387680000e+02
  9.86262510420000e+01
  3.49438084170000e+01
  1.28597851990000e+01
  6.48769130040000e+01
  1.97255207770000e+01
  2.89518043390000e+00
  1.19604547100000e+00
  5.43294511560000e-01
  1.00991040920000e-01
  3.68657280850000e-02
  1.79871896120000e+02
  4.21200693760000e+01
  1.31205030320000e+01
  4.62575036090000e+00
  1.66952110160000e+00
  5.85510121050000e-01
  1.89147961950000e-01
  5.37687551870000e-02
  3.44400000000000e+00
  2.90000000000000e-01
  7.00000000000000e-02
  3.14383495550000e+04
  4.71551533540000e+03
  1.07316292470000e+03
  3.03572387680000e+02
  9.86262510420000e+01
  3.49438084170000e+01
  1.28597851990000e+01
  6.48769130040000e+01
  1.97255207770000e+01
  2.89518043390000e+00
  1.19604547100000e+00
  5.43294511560000e-01
  1.00991040920000e-01
  3.68657280850000e-02
  1.79871896120000e+02
  4.21200693760000e+01
  1.31205030320000e+01
  4.62575036090000e+00
  1.66952110160000e+00
  5.85510121050000e-01
  1.89147961950000e-01
  5.37687551870000e-02
  3.44400000000000e+00
  2.90000000000000e-01
  7.00000000000000e-02
  3.14383495550000e+04
  4.71551533540000e+03
  1.07316292470000e+03
  3.03572387680000e+02
  9.86262510420000e+01
  3.49438084170000e+01
  1.28597851990000e+01
  6.48769130040000e+01
  1.97255207770000e+01
  2.89518043390000e+00
  1.19604547100000e+00
  5.43294511560000e-01
  1.00991040920000e-01
  3.68657280850000e-02
  1.79871896120000e+02
  4.21200693760000e+01
  1.31205030320000e+01
  4.62575036090000e+00
  1.66952110160000e+00
  5.85510121050000e-01
  1.89147961950000e-01
  5.37687551870000e-02
  3.44400000000000e+00
  2.90000000000000e-01
  7.00000000000000e-02
  3.14383495550000e+04
  4.71551533540000e+03
  1.07316292470000e+03
  3.03572387680000e+02
  9.86262510420000e+01
  3.49438084170000e+01
  1.28597851990000e+01
  6.48769130040000e+01
  1.97255207770000e+01
  2.89518043390000e+00
  1.19604547100000e+00
  5.43294511560000e-01
  1.00991040920000e-01
  3.68657280850000e-02
  1.79871896120000e+02
  4.21200693760000e+01
  1.31205030320000e+01
  4.62575036090000e+00
  1.66952110160000e+00
  5.85510121050000e-01
  1.89147961950000e-01
  5.37687551870000e-02
  3.44400000000000e+00
  2.90000000000000e-01
  7.00000000000000e-02
  3.14383495550000e+04
  4.71551533540000e+03
  1.07316292470000e+03
  3.03572387680000e+02
  9.86262510420000e+01
  3.49438084170000e+01
  1.28597851990000e+01
  6.48769130040000e+01
  1.97255207770000e+01
  2.89518043390000e+00
  1.19604547100000e+00
  5.43294511560000e-01
  1.00991040920000e-01
  3.68657280850000e-02
  1.79871896120000e+02
  4.21200693760000e+01
  1.31205030320000e+01
  4.62575036090000e+00
  1.66952110160000e+00
  5.85510121050000e-01
  1.89147961950000e-01
  5.37687551870000e-02
  3.44400000000000e+00
  2.90000000000000e-01
  7.00000000000000e-02
  3.14383495550000e+04
  4.71551533540000e+03
  1.07316292470000e+03
  3.03572387680000e+02
  9.86262510420000e+01
  3.49438084170000e+01
  1.28597851990000e+01
  6.48769130040000e+01
  1.97255207770000e+01
  2.89518043390000e+00
  1.19604547100000e+00
  5.43294511560000e-01
  1.00991040920000e-01
  3.68657280850000e-02
  1.79871896120000e+02
  4.21200693760000e+01
  1.31205030320000e+01
  4.62575036090000e+00
  1.66952110160000e+00
  5.85510121050000e-01
  1.89147961950000e-01
  5.37687551870000e-02
  3.44400000000000e+00
  2.90000000000000e-01
  7.00000000000000e-02
  3.14383495550000e+04
  4.71551533540000e+03
  1.07316292470000e+03
  3.03572387680000e+02
  9.86262510420000e+01
  3.49438084170000e+01
  1.28597851990000e+01
  6.48769130040000e+01
  1.97255207770000e+01
  2.89518043390000e+00
  1.19604547100000e+00
  5.43294511560000e-01
  1.00991040920000e-01
  3.68657280850000e-02
  1.79871896120000e+02
  4.21200693760000e+01
  1.31205030320000e+01
  4.62575036090000e+00
  1.66952110160000e+00
  5.85510121050000e-01
  1.89147961950000e-01
  5.37687551870000e-02
  3.44400000000000e+00
  2.90000000000000e-01
  7.00000000000000e-02
  3.14383495550000e+04
  4.71551533540000e+03
  1.07316292470000e+03
  3.03572387680000e+02
  9.86262510420000e+01
  3.49438084170000e+01
  1.28597851990000e+01
  6.48769130040000e+01
  1.97255207770000e+01
  2.89518043390000e+00
  1.19604547100000e+00
  5.43294511560000e-01
  1.00991040920000e-01
  3.68657280850000e-02
  1.79871896120000e+02
  4.21200693760000e+01
  1.31205030320000e+01
  4.62575036090000e+00
  1.66952110160000e+00
  5.85510121050000e-01
  1.89147961950000e-01
  5.37687551870000e-02
  3.44400000000000e+00
  2.90000000000000e-01
  7.00000000000000e-02
  3.14383495550000e+04
  4.71551533540000e+03
  1.07316292470000e+03
  3.03572387680000e+02
  9.86262510420000e+01
  3.49438084170000e+01
  1.28597851990000e+01
  6.48769130040000e+01
  1.97255207770000e+01
  2.89518043390000e+00
  1.19604547100000e+00
  5.43294511560000e-01
  1.00991040920000e-01
  3.68657280850000e-02
  1.79871896120000e+02
  4.21200693760000e+01
  1.31205030320000e+01
  4.62575036090000e+00
  1.66952110160000e+00
  5.85510121050000e-01
  1.89147961950000e-01
  5.37687551870000e-02
  3.44400000000000e+00
  2.90000000000000e-01
  7.00000000000000e-02
  3.14383495550000e+04
  4.71551533540000e+03
  1.07316292470000e+03
  3.03572387680000e+02
  9.86262510420000e+01
  3.49438084170000e+01
  1.28597851990000e+01
  6.48769130040000e+01
  1.97255207770000e+01
  2.89518043390000e+00
  1.19604547100000e+00
  5.43294511560000e-01
  1.00991040920000e-01
  3.68657280850000e-02
  1.79871896120000e+02
  4.21200693760000e+01
  1.31205030320000e+01
  4.62575036090000e+00
  1.66952110160000e+00
  5.85510121050000e-01
  1.89147961950000e-01
  5.37687551870000e-02
  3.44400000000000e+00
  2.90000000000000e-01
  7.00000000000000e-02
  3.14383495550000e+04
  4.71551533540000e+03
  1.07316292470000e+03
  3.03572387680000e+02
  9.86262510420000e+01
  3.49438084170000e+01
  1.28597851990000e+01
  6.48769130040000e+01
  1.97255207770000e+01
  2.89518043390000e+00
  1.19604547100000e+00
  5.43294511560000e-01
  1.00991040920000e-01
  3.68657280850000e-02
  1.79871896120000e+02
  4.21200693760000e+01
  1.31205030320000e+01
  4.62575036090000e+00
  1.66952110160000e+00
  5.85510121050000e-01
  1.89147961950000e-01
  5.37687551870000e-02
  3.44400000000000e+00
  2.90000000000000e-01
  7.00000000000000e-02
  3.14383495550000e+04
  4.71551533540000e+03
  1.07316292470000e+03
  3.03572387680000e+02
  9.86262510420000e+01
  3.49438084170000e+01
  1.28597851990000e+01
  6.48769130040000e+01
  1.97255207770000e+01
  2.89518043390000e+00
  1.19604547100000e+00
  5.43294511560000e-01
  1.00991040920000e-01
  3.68657280850000e-02
  1.79871896120000e+02
  4.21200693760000e+01
  1.31205030320000e+01
  4.62575036090000e+00
  1.66952110160000e+00
  5.85510121050000e-01
  1.89147961950000e-01
  5.37687551870000e-02
  3.44400000000000e+00
  2.90000000000000e-01
  7.00000000000000e-02
  3.14383495550000e+04
  4.71551533540000e+03
  1.07316292470000e+03
  3.03572387680000e+02
  9.86262510420000e+01
  3.49438084170000e+01
  1.28597851990000e+01
  6.48769130040000e+01
  1.97255207770000e+01
  2.89518043390000e+00
  1.19604547100000e+00
  5.43294511560000e-01
  1.00991040920000e-01
  3.68657280850000e-02
  1.79871896120000e+02
  4.21200693760000e+01
  1.31205030320000e+01
  4.62575036090000e+00
  1.66952110160000e+00
  5.85510121050000e-01
  1.89147961950000e-01
  5.37687551870000e-02
  3.44400000000000e+00
  2.90000000000000e-01
  7.00000000000000e-02
  3.14383495550000e+04
  4.71551533540000e+03
  1.07316292470000e+03
  3.03572387680000e+02
  9.86262510420000e+01
  3.49438084170000e+01
  1.28597851990000e+01
  6.48769130040000e+01
  1.97255207770000e+01
  2.89518043390000e+00
  1.19604547100000e+00
  5.43294511560000e-01
  1.00991040920000e-01
  3.68657280850000e-02
  1.79871896120000e+02
  4.21200693760000e+01
  1.31205030320000e+01
  4.62575036090000e+00
  1.66952110160000e+00
  5.85510121050000e-01
  1.89147961950000e-01
  5.37687551870000e-02
  3.44400000000000e+00
  2.90000000000000e-01
  7.00000000000000e-02
  3.14383495550000e+04
  4.71551533540000e+03
  1.07316292470000e+03
  3.03572387680000e+02
  9.86262510420000e+01
  3.49438084170000e+01
  1.28597851990000e+01
  6.48769130040000e+01
  1.97255207770000e+01
  2.89518043390000e+00
  1.19604547100000e+00
  5.43294511560000e-01
  1.00991040920000e-01
  3.68657280850000e-02
  1.79871896120000e+02
  4.21200693760000e+01
  1.31205030320000e+01
  4.62575036090000e+00
  1.66952110160000e+00
  5.85510121050000e-01
  1.89147961950000e-01
  5.37687551870000e-02
  3.44400000000000e+00
  2.90000000000000e-01
  7.00000000000000e-02
  3.14383495550000e+04
  4.71551533540000e+03
  1.07316292470000e+03
  3.03572387680000e+02
  9.86262510420000e+01
  3.49438084170000e+01
  1.28597851990000e+01
  6.48769130040000e+01
  1.97255207770000e+01
  2.89518043390000e+00
  1.19604547100000e+00
  5.43294511560000e-01
  1.00991040920000e-01
  3.68657280850000e-02
  1.79871896120000e+02
  4.21200693760000e+01
  1.31205030320000e+01
  4.62575036090000e+00
  1.66952110160000e+00
  5.85510121050000e-01
  1.89147961950000e-01
  5.37687551870000e-02
  3.44400000000000e+00
  2.90000000000000e-01
  7.00000000000000e-02
  3.14383495550000e+04
  4.71551533540000e+03
  1.07316292470000e+03
  3.03572387680000e+02
  9.86262510420000e+01
  3.49438084170000e+01
  1.28597851990000e+01
  6.48769130040000e+01
  1.97255207770000e+01
  2.89518043390000e+00
  1.19604547100000e+00
  5.43294511560000e-01
  1.00991040920000e-01
  3.68657280850000e-02
  1.79871896120000e+02
  4.21200693760000e+01
  1.31205030320000e+01
  4.62575036090000e+00
  1.66952110160000e+00
  5.85510121050000e-01
  1.89147961950000e-01
  5.37687551870000e-02
  3.44400000000000e+00
  2.90000000000000e-01
  7.00000000000000e-02
  3.14383495550000e+04
  4.71551533540000e+03
  1.07316292470000e+03
  3.03572387680000e+02
  9.86262510420000e+01
  3.49438084170000e+01
  1.28597851990000e+01
  6.48769130040000e+01
  1.97255207770000e+01
  2.89518043390000e+00
  1.19604547100000e+00
  5.43294511560000e-01
  1.00991040920000e-01
  3.68657280850000e-02
  1.79871896120000e+02
  4.21200693760000e+01
  1.31205030320000e+01
  4.62575036090000e+00
  1.66952110160000e+00
  5.85510121050000e-01
  1.89147961950000e-01
  5.37687551870000e-02
  3.44400000000000e+00
  2.90000000000000e-01
  7.00000000000000e-02
  3.14383495550000e+04
  4.71551533540000e+03
  1.07316292470000e+03
  3.03572387680000e+02
  9.86262510420000e+01
  3.49438084170000e+01
  1.28597851990000e+01
  6.48769130040000e+01
  1.97255207770000e+01
  2.89518043390000e+00
  1.19604547100000e+00
  5.43294511560000e-01
  1.00991040920000e-01
  3.68657280850000e-02
  1.79871896120000e+02
  4.21200693760000e+01
  1.31205030320000e+01
  4.62575036090000e+00
  1.66952110160000e+00
  5.85510121050000e-01
  1.89147961950000e-01
  5.37687551870000e-02
  3.44400000000000e+00
  2.90000000000000e-01
  7.00000000000000e-02
  3.14383495550000e+04
  4.71551533540000e+03
  1.07316292470000e+03
  3.03572387680000e+02
  9.86262510420000e+01
  3.49438084170000e+01
  1.28597851990000e+01
  6.48769130040000e+01
  1.97255207770000e+01
  2.89518043390000e+00
  1.19604547100000e+00
  5.43294511560000e-01
  1.00991040920000e-01
  3.68657280850000e-02
  1.79871896120000e+02
  4.21200693760000e+01
  1.31205030320000e+01
  4.62575036090000e+00
  1.66952110160000e+00
  5.85510121050000e-01
  1.89147961950000e-01
  5.37687551870000e-02
  3.44400000000000e+00
  2.90000000000000e-01
  7.00000000000000e-02
  3.14383495550000e+04
  4.71551533540000e+03
  1.07316292470000e+03
  3.03572387680000e+02
  9.86262510420000e+01
  3.49438084170000e+01
  1.28597851990000e+01
  6.48769130040000e+01
  1.97255207770000e+01
  2.89518043390000e+00
  1.19604547100000e+00
  5.43294511560000e-01
  1.00991040920000e-01
  3.68657280850000e-02
  1.79871896120000e+02
  4.21200693760000e+01
  1.31205030320000e+01
  4.62575036090000e+00
  1.66952110160000e+00
  5.85510121050000e-01
  1.89147961950000e-01
  5.37687551870000e-02
  3.44400000000000e+00
  2.90000000000000e-01
  7.00000000000000e-02
  3.14383495550000e+04
  4.71551533540000e+03
  1.07316292470000e+03
  3.03572387680000e+02
  9.86262510420000e+01
  3.49438084170000e+01
  1.28597851990000e+01
  6.48769130040000e+01
  1.97255207770000e+01
  2.89518043390000e+00
  1.19604547100000e+00
  5.43294511560000e-01
  1.00991040920000e-01
  3.68657280850000e-02
  1.79871896120000e+02
  4.21200693760000e+01
  1.31205030320000e+01
  4.62575036090000e+00
  1.66952110160000e+00
  5.85510121050000e-01
  1.89147961950000e-01
  5.37687551870000e-02
  3.44400000000000e+00
  2.90000000000000e-01
  7.00000000000000e-02
  3.14383495550000e+04
  4.71551533540000e+03
  1.07316292470000e+03
  3.03572387680000e+02
  9.86262510420000e+01
  3.49438084170000e+01
  1.28597851990000e+01
  6.48769130040000e+01
  1.97255207770000e+01
  2.89518043390000e+00
  1.19604547100000e+00
  5.43294511560000e-01
  1.00991040920000e-01
  3.68657280850000e-02
  1.79871896120000e+02
  4.21200693760000e+01
  1.31205030320000e+01
  4.62575036090000e+00
  1.66952110160000e+00
  5.85510121050000e-01
  1.89147961950000e-01
  5.37687551870000e-02
  3.44400000000000e+00
  2.90000000000000e-01
  7.00000000000000e-02
  3.14383495550000e+04
  4.71551533540000e+03
  1.07316292470000e+03
  3.03572387680000e+02
  9.86262510420000e+01
  3.49438084170000e+01
  1.28597851990000e+01
  6.48769130040000e+01
  1.97255207770000e+01
  2.89518043390000e+00
  1.19604547100000e+00
  5.43294511560000e-01
  1.00991040920000e-01
  3.68657280850000e-02
  1.79871896120000e+02
  4.21200693760000e+01
  1.31205030320000e+01
  4.62575036090000e+00
  1.66952110160000e+00
  5.85510121050000e-01
  1.89147961950000e-01
  5.37687551870000e-02
  3.44400000000000e+00
  2.90000000000000e-01
  7.00000000000000e-02
  3.14383495550000e+04
  4.71551533540000e+03
  1.07316292470000e+03
  3.03572387680000e+02
  9.86262510420000e+01
  3.49438084170000e+01
  1.28597851990000e+01
  6.48769130040000e+01
  1.97255207770000e+01
  2.89518043390000e+00
  1.19604547100000e+00
  5.43294511560000e-01
  1.00991040920000e-01
  3.68657280850000e-02
  1.79871896120000e+02
  4.21200693760000e+01
  1.31205030320000e+01
  4.62575036090000e+00
  1.66952110160000e+00
  5.85510121050000e-01
  1.89147961950000e-01
  5.37687551870000e-02
  3.44400000000000e+00
  2.90000000000000e-01
  7.00000000000000e-02
  3.14383495550000e+04
  4.71551533540000e+03
  1.07316292470000e+03
  3.03572387680000e+02
  9.86262510420000e+01
  3.49438084170000e+01
  1.28597851990000e+01
  6.48769130040000e+01
  1.97255207770000e+01
  2.89518043390000e+00
  1.19604547100000e+00
  5.43294511560000e-01
  1.00991040920000e-01
  3.68657280850000e-02
  1.79871896120000e+02
  4.21200693760000e+01
  1.31205030320000e+01
  4.62575036090000e+00
  1.66952110160000e+00
  5.85510121050000e-01
  1.89147961950000e-01
  5.37687551870000e-02
  3.44400000000000e+00
  2.90000000000000e-01
  7.00000000000000e-02
  2.70323826310000e+04
  4.05238713920000e+03
  9.22327227100000e+02
  2.61240709890000e+02
  8.53546413510000e+01
  3.10350352450000e+01
  1.22608607280000e+01
  4.99870760050000e+00
  1.17031081580000e+00
  4.64747409940000e-01
  1.85045363570000e-01
  6.32749548010000e+01
  1.46270493790000e+01
  4.45012234560000e+00
  1.52757996470000e+00
  5.29351179430000e-01
  1.74784212700000e-01
  2.31400000000000e+00
  6.45000000000000e-01
  1.42800000000000e+00
  2.70323826310000e+04
  4.05238713920000e+03
  9.22327227100000e+02
  2.61240709890000e+02
  8.53546413510000e+01
  3.10350352450000e+01
  1.22608607280000e+01
  4.99870760050000e+00
  1.17031081580000e+00
  4.64747409940000e-01
  1.85045363570000e-01
  6.32749548010000e+01
  1.46270493790000e+01
  4.45012234560000e+00
  1.52757996470000e+00
  5.29351179430000e-01
  1.74784212700000e-01
  2.31400000000000e+00
  6.45000000000000e-01
  1.42800000000000e+00
  2.70323826310000e+04
  4.05238713920000e+03
  9.22327227100000e+02
  2.61240709890000e+02
  8.53546413510000e+01
  3.10350352450000e+01
  1.22608607280000e+01
  4.99870760050000e+00
  1.17031081580000e+00
  4.64747409940000e-01
  1.85045363570000e-01
  6.32749548010000e+01
  1.46270493790000e+01
  4.45012234560000e+00
  1.52757996470000e+00
  5.29351179430000e-01
  1.74784212700000e-01
  2.31400000000000e+00
  6.45000000000000e-01
  1.42800000000000e+00
  2.70323826310000e+04
  4.05238713920000e+03
  9.22327227100000e+02
  2.61240709890000e+02
  8.53546413510000e+01
  3.10350352450000e+01
  1.22608607280000e+01
  4.99870760050000e+00
  1.17031081580000e+00
  4.64747409940000e-01
  1.85045363570000e-01
  6.32749548010000e+01
  1.46270493790000e+01
  4.45012234560000e+00
  1.52757996470000e+00
  5.29351179430000e-01
  1.74784212700000e-01
  2.31400000000000e+00
  6.45000000000000e-01
  1.42800000000000e+00
  2.70323826310000e+04
  4.05238713920000e+03
  9.22327227100000e+02
  2.61240709890000e+02
  8.53546413510000e+01
  3.10350352450000e+01
  1.22608607280000e+01
  4.99870760050000e+00
  1.17031081580000e+00
  4.64747409940000e-01
  1.85045363570000e-01
  6.32749548010000e+01
  1.46270493790000e+01
  4.45012234560000e+00
  1.52757996470000e+00
  5.29351179430000e-01
  1.74784212700000e-01
  2.31400000000000e+00
  6.45000000000000e-01
  1.42800000000000e+00
  2.70323826310000e+04
  4.05238713920000e+03
  9.22327227100000e+02
  2.61240709890000e+02
  8.53546413510000e+01
  3.10350352450000e+01
  1.22608607280000e+01
  4.99870760050000e+00
  1.17031081580000e+00
  4.64747409940000e-01
  1.85045363570000e-01
  6.32749548010000e+01
  1.46270493790000e+01
  4.45012234560000e+00
  1.52757996470000e+00
  5.29351179430000e-01
  1.74784212700000e-01
  2.31400000000000e+00
  6.45000000000000e-01
  1.42800000000000e+00
  2.70323826310000e+04
  4.05238713920000e+03
  9.22327227100000e+02
  2.61240709890000e+02
  8.53546413510000e+01
  3.10350352450000e+01
  1.22608607280000e+01
  4.99870760050000e+00
  1.17031081580000e+00
  4.64747409940000e-01
  1.85045363570000e-01
  6.32749548010000e+01
  1.46270493790000e+01
  4.45012234560000e+00
  1.52757996470000e+00
  5.29351179430000e-01
  1.74784212700000e-01
  2.31400000000000e+00
  6.45000000000000e-01
  1.42800000000000e+00
  2.70323826310000e+04
  4.05238713920000e+03
  9.22327227100000e+02
  2.61240709890000e+02
  8.53546413510000e+01
  3.10350352450000e+01
  1.22608607280000e+01
  4.99870760050000e+00
  1.17031081580000e+00
  4.64747409940000e-01
  1.85045363570000e-01
  6.32749548010000e+01
  1.46270493790000e+01
  4.45012234560000e+00
  1.52757996470000e+00
  5.29351179430000e-01
  1.74784212700000e-01
  2.31400000000000e+00
  6.45000000000000e-01
  1.42800000000000e+00
  2.70323826310000e+04
  4.05238713920000e+03
  9.22327227100000e+02
  2.61240709890000e+02
  8.53546413510000e+01
  3.10350352450000e+01
  1.22608607280000e+01
  4.99870760050000e+00
  1.17031081580000e+00
  4.64747409940000e-01
  1.85045363570000e-01
  6.32749548010000e+01
  1.46270493790000e+01
  4.45012234560000e+00
  1.52757996470000e+00
  5.29351179430000e-01
  1.74784212700000e-01
  2.31400000000000e+00
  6.45000000000000e-01
  1.42800000000000e+00
  2.70323826310000e+04
  4.05238713920000e+03
  9.22327227100000e+02
  2.61240709890000e+02
  8.53546413510000e+01
  3.10350352450000e+01
  1.22608607280000e+01
  4.99870760050000e+00
  1.17031081580000e+00
  4.64747409940000e-01
  1.85045363570000e-01
  6.32749548010000e+01
  1.46270493790000e+01
  4.45012234560000e+00
  1.52757996470000e+00
  5.29351179430000e-01
  1.74784212700000e-01
  2.31400000000000e+00
  6.45000000000000e-01
  1.42800000000000e+00
  2.70323826310000e+04
  4.05238713920000e+03
  9.22327227100000e+02
  2.61240709890000e+02
  8.53546413510000e+01
  3.10350352450000e+01
  1.22608607280000e+01
  4.99870760050000e+00
  1.17031081580000e+00
  4.64747409940000e-01
  1.85045363570000e-01
  6.32749548010000e+01
  1.46270493790000e+01
  4.45012234560000e+00
  1.52757996470000e+00
  5.29351179430000e-01
  1.74784212700000e-01
  2.31400000000000e+00
  6.45000000000000e-01
  1.42800000000000e+00
  2.70323826310000e+04
  4.05238713920000e+03
  9.22327227100000e+02
  2.61240709890000e+02
  8.53546413510000e+01
  3.10350352450000e+01
  1.22608607280000e+01
  4.99870760050000e+00
  1.17031081580000e+00
  4.64747409940000e-01
  1.85045363570000e-01
  6.32749548010000e+01
  1.46270493790000e+01
  4.45012234560000e+00
  1.52757996470000e+00
  5.29351179430000e-01
  1.74784212700000e-01
  2.31400000000000e+00
  6.45000000000000e-01
  1.42800000000000e+00
  2.70323826310000e+04
  4.05238713920000e+03
  9.22327227100000e+02
  2.61240709890000e+02
  8.53546413510000e+01
  3.10350352450000e+01
  1.22608607280000e+01
  4.99870760050000e+00
  1.17031081580000e+00
  4.64747409940000e-01
  1.85045363570000e-01
  6.32749548010000e+01
  1.46270493790000e+01
  4.45012234560000e+00
  1.52757996470000e+00
  5.29351179430000e-01
  1.74784212700000e-01
  2.31400000000000e+00
  6.45000000000000e-01
  1.42800000000000e+00
  2.70323826310000e+04
  4.05238713920000e+03
  9.22327227100000e+02
  2.61240709890000e+02
  8.53546413510000e+01
  3.10350352450000e+01
  1.22608607280000e+01
  4.99870760050000e+00
  1.17031081580000e+00
  4.64747409940000e-01
  1.85045363570000e-01
  6.32749548010000e+01
  1.46270493790000e+01
  4.45012234560000e+00
  1.52757996470000e+00
  5.29351179430000e-01
  1.74784212700000e-01
  2.31400000000000e+00
  6.45000000000000e-01
  1.42800000000000e+00
  2.70323826310000e+04
  4.05238713920000e+03
  9.22327227100000e+02
  2.61240709890000e+02
  8.53546413510000e+01
  3.10350352450000e+01
  1.22608607280000e+01
  4.99870760050000e+00
  1.17031081580000e+00
  4.64747409940000e-01
  1.85045363570000e-01
  6.32749548010000e+01
  1.46270493790000e+01
  4.45012234560000e+00
  1.52757996470000e+00
  5.29351179430000e-01
  1.74784212700000e-01
  2.31400000000000e+00
  6.45000000000000e-01
  1.42800000000000e+00
  2.70323826310000e+04
  4.05238713920000e+03
  9.22327227100000e+02
  2.61240709890000e+02
  8.53546413510000e+01
  3.10350352450000e+01
  1.22608607280000e+01
  4.99870760050000e+00
  1.17031081580000e+00
  4.64747409940000e-01
  1.85045363570000e-01
  6.32749548010000e+01
  1.46270493790000e+01
  4.45012234560000e+00
  1.52757996470000e+00
  5.29351179430000e-01
  1.74784212700000e-01
  2.31400000000000e+00
  6.45000000000000e-01
  1.42800000000000e+00
  2.70323826310000e+04
  4.05238713920000e+03
  9.22327227100000e+02
  2.61240709890000e+02
  8.53546413510000e+01
  3.10350352450000e+01
  1.22608607280000e+01
  4.99870760050000e+00
  1.17031081580000e+00
  4.64747409940000e-01
  1.85045363570000e-01
  6.32749548010000e+01
  1.46270493790000e+01
  4.45012234560000e+00
  1.52757996470000e+00
  5.29351179430000e-01
  1.74784212700000e-01
  2.31400000000000e+00
  6.45000000000000e-01
  1.42800000000000e+00
  2.70323826310000e+04
  4.05238713920000e+03
  9.22327227100000e+02
  2.61240709890000e+02
  8.53546413510000e+01
  3.10350352450000e+01
  1.22608607280000e+01
  4.99870760050000e+00
  1.17031081580000e+00
  4.64747409940000e-01
  1.85045363570000e-01
  6.32749548010000e+01
  1.46270493790000e+01
  4.45012234560000e+00
  1.52757996470000e+00
  5.29351179430000e-01
  1.74784212700000e-01
  2.31400000000000e+00
  6.45000000000000e-01
  1.42800000000000e+00
  2.70323826310000e+04
  4.05238713920000e+03
  9.22327227100000e+02
  2.61240709890000e+02
  8.53546413510000e+01
  3.10350352450000e+01
  1.22608607280000e+01
  4.99870760050000e+00
  1.17031081580000e+00
  4.64747409940000e-01
  1.85045363570000e-01
  6.32749548010000e+01
  1.46270493790000e+01
  4.45012234560000e+00
  1.52757996470000e+00
  5.29351179430000e-01
  1.74784212700000e-01
  2.31400000000000e+00
  6.45000000000000e-01
  1.42800000000000e+00
  2.70323826310000e+04
  4.05238713920000e+03
  9.22327227100000e+02
  2.61240709890000e+02
  8.53546413510000e+01
  3.10350352450000e+01
  1.22608607280000e+01
  4.99870760050000e+00
  1.17031081580000e+00
  4.64747409940000e-01
  1.85045363570000e-01
  6.32749548010000e+01
  1.46270493790000e+01
  4.45012234560000e+00
  1.52757996470000e+00
  5.29351179430000e-01
  1.74784212700000e-01
  2.31400000000000e+00
  6.45000000000000e-01
  1.42800000000000e+00
  2.70323826310000e+04
  4.05238713920000e+03
  9.22327227100000e+02
  2.61240709890000e+02
  8.53546413510000e+01
  3.10350352450000e+01
  1.22608607280000e+01
  4.99870760050000e+00
  1.17031081580000e+00
  4.64747409940000e-01
  1.85045363570000e-01
  6.32749548010000e+01
  1.46270493790000e+01
  4.45012234560000e+00
  1.52757996470000e+00
  5.29351179430000e-01
  1.74784212700000e-01
  2.31400000000000e+00
  6.45000000000000e-01
  1.42800000000000e+00
  2.70323826310000e+04
  4.05238713920000e+03
  9.22327227100000e+02
  2.61240709890000e+02
  8.53546413510000e+01
  3.10350352450000e+01
  1.22608607280000e+01
  4.99870760050000e+00
  1.17031081580000e+00
  4.64747409940000e-01
  1.85045363570000e-01
  6.32749548010000e+01
  1.46270493790000e+01
  4.45012234560000e+00
  1.52757996470000e+00
  5.29351179430000e-01
  1.74784212700000e-01
  2.31400000000000e+00
  6.45000000000000e-01
  1.42800000000000e+00
  2.70323826310000e+04
  4.05238713920000e+03
  9.22327227100000e+02
  2.61240709890000e+02
  8.53546413510000e+01
  3.10350352450000e+01
  1.22608607280000e+01
  4.99870760050000e+00
  1.17031081580000e+00
  4.64747409940000e-01
  1.85045363570000e-01
  6.32749548010000e+01
  1.46270493790000e+01
  4.45012234560000e+00
  1.52757996470000e+00
  5.29351179430000e-01
  1.74784212700000e-01
  2.31400000000000e+00
  6.45000000000000e-01
  1.42800000000000e+00
  2.70323826310000e+04
  4.05238713920000e+03
  9.22327227100000e+02
  2.61240709890000e+02
  8.53546413510000e+01
  3.10350352450000e+01
  1.22608607280000e+01
  4.99870760050000e+00
  1.17031081580000e+00
  4.64747409940000e-01
  1.85045363570000e-01
  6.32749548010000e+01
  1.46270493790000e+01
  4.45012234560000e+00
  1.52757996470000e+00
  5.29351179430000e-01
  1.74784212700000e-01
  2.31400000000000e+00
  6.45000000000000e-01
  1.42800000000000e+00
  2.70323826310000e+04
  4.05238713920000e+03
  9.22327227100000e+02
  2.61240709890000e+02
  8.53546413510000e+01
  3.10350352450000e+01
  1.22608607280000e+01
  4.99870760050000e+00
  1.17031081580000e+00
  4.64747409940000e-01
  1.85045363570000e-01
  6.32749548010000e+01
  1.46270493790000e+01
  4.45012234560000e+00
  1.52757996470000e+00
  5.29351179430000e-01
  1.74784212700000e-01
  2.31400000000000e+00
  6.45000000000000e-01
  1.42800000000000e+00
  2.70323826310000e+04
  4.05238713920000e+03
  9.22327227100000e+02
  2.61240709890000e+02
  8.53546413510000e+01
  3.10350352450000e+01
  1.22608607280000e+01
  4.99870760050000e+00
  1.17031081580000e+00
  4.64747409940000e-01
  1.85045363570000e-01
  6.32749548010000e+01
  1.46270493790000e+01
  4.45012234560000e+00
  1.52757996470000e+00
  5.29351179430000e-01
  1.74784212700000e-01
  2.31400000000000e+00
  6.45000000000000e-01
  1.42800000000000e+00
  2.70323826310000e+04
  4.05238713920000e+03
  9.22327227100000e+02
  2.61240709890000e+02
  8.53546413510000e+01
  3.10350352450000e+01
  1.22608607280000e+01
  4.99870760050000e+00
  1.17031081580000e+00
  4.64747409940000e-01
  1.85045363570000e-01
  6.32749548010000e+01
  1.46270493790000e+01
  4.45012234560000e+00
  1.52757996470000e+00
  5.29351179430000e-01
  1.74784212700000e-01
  2.31400000000000e+00
  6.45000000000000e-01
  1.42800000000000e+00
  2.70323826310000e+04
  4.05238713920000e+03
  9.22327227100000e+02
  2.61240709890000e+02
  8.53546413510000e+01
  3.10350352450000e+01
  1.22608607280000e+01
  4.99870760050000e+00
  1.17031081580000e+00
  4.64747409940000e-01
  1.85045363570000e-01
  6.32749548010000e+01
  1.46270493790000e+01
  4.45012234560000e+00
  1.52757996470000e+00
  5.29351179430000e-01
  1.74784212700000e-01
  2.31400000000000e+00
  6.45000000000000e-01
  1.42800000000000e+00
  2.70323826310000e+04
  4.05238713920000e+03
  9.22327227100000e+02
  2.61240709890000e+02
  8.53546413510000e+01
  3.10350352450000e+01
  1.22608607280000e+01
  4.99870760050000e+00
  1.17031081580000e+00
  4.64747409940000e-01
  1.85045363570000e-01
  6.32749548010000e+01
  1.46270493790000e+01
  4.45012234560000e+00
  1.52757996470000e+00
  5.29351179430000e-01
  1.74784212700000e-01
  2.31400000000000e+00
  6.45000000000000e-01
  1.42800000000000e+00
  2.70323826310000e+04
  4.05238713920000e+03
  9.22327227100000e+02
  2.61240709890000e+02
  8.53546413510000e+01
  3.10350352450000e+01
  1.22608607280000e+01
  4.99870760050000e+00
  1.17031081580000e+00
  4.64747409940000e-01
  1.85045363570000e-01
  6.32749548010000e+01
  1.46270493790000e+01
  4.45012234560000e+00
  1.52757996470000e+00
  5.29351179430000e-01
  1.74784212700000e-01
  2.31400000000000e+00
  6.45000000000000e-01
  1.42800000000000e+00
  2.70323826310000e+04
  4.05238713920000e+03
  9.22327227100000e+02
  2.61240709890000e+02
  8.53546413510000e+01
  3.10350352450000e+01
  1.22608607280000e+01
  4.99870760050000e+00
  1.17031081580000e+00
  4.64747409940000e-01
  1.85045363570000e-01
  6.32749548010000e+01
  1.46270493790000e+01
  4.45012234560000e+00
  1.52757996470000e+00
  5.29351179430000e-01
  1.74784212700000e-01
  2.31400000000000e+00
  6.45000000000000e-01
  1.42800000000000e+00
  2.70323826310000e+04
  4.05238713920000e+03
  9.22327227100000e+02
  2.61240709890000e+02
  8.53546413510000e+01
  3.10350352450000e+01
  1.22608607280000e+01
  4.99870760050000e+00
  1.17031081580000e+00
  4.64747409940000e-01
  1.85045363570000e-01
  6.32749548010000e+01
  1.46270493790000e+01
  4.45012234560000e+00
  1.52757996470000e+00
  5.29351179430000e-01
  1.74784212700000e-01
  2.31400000000000e+00
  6.45000000000000e-01
  1.42800000000000e+00
  2.70323826310000e+04
  4.05238713920000e+03
  9.22327227100000e+02
  2.61240709890000e+02
  8.53546413510000e+01
  3.10350352450000e+01
  1.22608607280000e+01
  4.99870760050000e+00
  1.17031081580000e+00
  4.64747409940000e-01
  1.85045363570000e-01
  6.32749548010000e+01
  1.46270493790000e+01
  4.45012234560000e+00
  1.52757996470000e+00
  5.29351179430000e-01
  1.74784212700000e-01
  2.31400000000000e+00
  6.45000000000000e-01
  1.42800000000000e+00

  5.43590637341640e-01
  1.01455440957678e+00
  1.73157320313973e+00
  2.69103762923255e+00
  3.60445471307904e+00
  3.70255569805205e+00
  1.83835408314535e+00
  5.44757560454096e-01
  4.71814503811503e-01
  2.36494467595494e-01
  1.22114184794684e-01
  1.35966514595563e+00
  1.45125894851184e+00
  1.27092314192642e+00
  8.02572118948022e-01
  3.01875886874207e-01
  8.07265016506241e-02
  1.93540141597197e+00
  2.21644478159161e-01
  7.96287553418135e-01
  9.73106087343933e-01
  1.81224237364027e+00
  3.06211587998873e+00
  4.60751974293548e+00
  5.64285406447072e+00
  4.65737548687379e+00
  1.54844590126125e+00
  8.85003440430803e-01
  1.71754964781258e+00
 -1.77240444183369e+00
  6.34755069264484e-01
  1.08825269910943e-01
  1.27679810259400e-01
  5.99621510139067e-02
  5.83395367839964e+00
  6.94517385554491e+00
  6.47033263889273e+00
  4.01128311017259e+00
  1.42249246390442e+00
  7.30059230239136e-01
  1.77804263529115e-01
  3.69064748804282e-02
  1.43307841944265e+01
  1.88627909885626e-01
  1.56794572814139e-02
  9.73106087343933e-01
  1.81224237364027e+00
  3.06211587998873e+00
  4.60751974293548e+00
  5.64285406447072e+00
  4.65737548687379e+00
  1.54844590126125e+00
  8.85003440430803e-01
  1.71754964781258e+00
 -1.77240444183369e+00
  6.34755069264484e-01
  1.08825269910943e-01
  1.27679810259400e-01
  5.99621510139067e-02
  5.83395367839964e+00
  6.94517385554491e+00
  6.47033263889273e+00
  4.01128311017259e+00
  1.42249246390442e+00
  7.30059230239136e-01
  1.77804263529115e-01
  3.69064748804282e-02
  1.43307841944265e+01
  1.88627909885626e-01
  1.56794572814139e-02
  9.73106087343933e-01
  1.81224237364027e+00
  3.06211587998873e+00
  4.60751974293548e+00
  5.64285406447072e+00
  4.65737548687379e+00
  1.54844590126125e+00
  8.85003440430803e-01
  1.71754964781258e+00
 -1.77240444183369e+00
  6.34755069264484e-01
  1.08825269910943e-01
  1.27679810259400e-01
  5.99621510139067e-02
  5.83395367839964e+00
  6.94517385554491e+00
  6.47033263889273e+00
  4.01128311017259e+00
  1.42249246390442e+00
  7.30059230239136e-01
  1.77804263529115e-01
  3.69064748804282e-02
  1.43307841944265e+01
  1.88627909885626e-01
  1.56794572814139e-02
  9.73106087343933e-01
  1.81224237364027e+00
  3.06211587998873e+00
  4.60751974293548e+00
  5.64285406447072e+00
  4.65737548687379e+00
  1.54844590126125e+00
  8.85003440430803e-01
  1.71754964781258e+00
 -1.77240444183369e+00
  6.34755069264484e-01
  1.08825269910943e-01
  1.27679810259400e-01
  5.99621510139067e-02
  5.83395367839964e+00
  6.94517385554491e+00
  6.47033263889273e+00
  4.01128311017259e+00
  1.42249246390442e+00
  7.30059230239136e-01
  1.77804263529115e-01
  3.69064748804282e-02
  1.43307841944265e+01
  1.88627909885626e-01
  1.56794572814139e-02
  9.73106087343933e-01
  1.81224237364027e+00
  3.06211587998873e+00
  4.60751974293548e+00
  5.64285406447072e+00
  4.65737548687379e+00
  1.54844590126125e+00
  8.85003440430803e-01
  1.71754964781258e+00
 -1.77240444183369e+00
  6.34755069264484e-01
  1.08825269910943e-01
  1.27679810259400e-01
  5.99621510139067e-02
  5.83395367839964e+00
  6.94517385554491e+00
  6.47033263889273e+00
  4.01128311017259e+00
  1.42249246390442e+00
  7.30059230239136e-01
  1.77804263529115e-01
  3.69064748804282e-02
  1.43307841944265e+01
  1.88627909885626e-01
  1.56794572814139e-02
  9.73106087343933e-01
  1.81224237364027e+00
  3.06211587998873e+00
  4.60751974293548e+00
  5.64285406447072e+00
  4.65737548687379e+00
  1.54844590126125e+00
  8.85003440430803e-01
  1.71754964781258e+00
 -1.77240444183369e+00
  6.34755069264484e-01
  1.08825269910943e-01
  1.27679810259400e-01
  5.99621510139067e-02
  5.83395367839964e+00
  6.94517385554491e+00
  6.47033263889273e+00
  4.01128311017259e+00
  1.42249246390442e+00
  7.30059230239136e-01
  1.77804263529115e-01
  3.69064748804282e-02
  1.43307841944265e+01
  1.88627909885626e-01
  1.56794572814139e-02
  9.73106087343933e-01
  1.81224237364027e+00
  3.06211587998873e+00
  4.60751974293548e+00
  5.64285406447072e+00
  4.65737548687379e+00
  1.54844590126125e+00
  8.85003440430803e-01
  1.71754964781258e+00
 -1.77240444183369e+00
  6.34755069264484e-01
  1.08825269910943e-01
  1.27679810259400e-01
  5.99621510139067e-02
  5.83395367839964e+00
  6.94517385554491e+00
  6.47033263889273e+00
  4.01128311017259e+00
  1.42249246390442e+00
  7.30059230239136e-01
  1.77804263529115e-01
  3.69064748804282e-02
  1.43307841944265e+01
  1.88627909885626e-01
  1.56794572814139e-02
  9.73106087343933e-01
  1.81224237364027e+00
  3.06211587998873e+00
  4.60751974293548e+00
  5.64285406447072e+00
  4.65737548687379e+00
  1.54844590126125e+00
  8.85003440430803e-01
  1.71754964781258e+00
 -1.77240444183369e+00
  6.34755069264484e-01
  1.08825269910943e-01
  1.27679810259400e-01
  5.99621510139067e-02
  5.83395367839964e+00
  6.94517385554491e+00
  6.47033263889273e+00
  4.01128311017259e+00
  1.42249246390442e+00
  7.30059230239136e-01
  1.77804263529115e-01
  3.69064748804282e-02
  1.43307841944265e+01
  1.88627909885626e-01
  1.56794572814139e-02
  9.73106087343933e-01
  1.81224237364027e+00
  3.06211587998873e+00
  4.60751974293548e+00
  5.64285406447072e+00
  4.65737548687379e+00
  1.54844590126125e+00
  8.85003440430803e-01
  1.71754964781258e+00
 -1.77240444183369e+00
  6.34755069264484e-01
  1.08825269910943e-01
  1.27679810259400e-01
  5.99621510139067e-02
  5.83395367839964e+00
  6.94517385554491e+00
  6.47033263889273e+00
  4.01128311017259e+00
  1.42249246390442e+00
  7.30059230239136e-01
  1.77804263529115e-01
  3.69064748804282e-02
  1.43307841944265e+01
  1.88627909885626e-01
  1.56794572814139e-02
  9.73106087343933e-01
  1.81224237364027e+00
  3.06211587998873e+00
  4.60751974293548e+00
  5.64285406447072e+00
  4.65737548687379e+00
  1.54844590126125e+00
  8.85003440430803e-01
  1.71754964781258e+00
 -1.77240444183369e+00
  6.34755069264484e-01
  1.08825269910943e-01
  1.27679810259400e-01
  5.99621510139067e-02
  5.83395367839964e+00
  6.94517385554491e+00
  6.47033263889273e+00
  4.01128311017259e+00
  1.42249246390442e+00
  7.30059230239136e-01
  1.77804263529115e-01
  3.69064748804282e-02
  1.43307841944265e+01
  1.88627909885626e-01
  1.56794572814139e-02
  9.73106087343933e-01
  1.81224237364027e+00
  3.06211587998873e+00
  4.60751974293548e+00
  5.64285406447072e+00
  4.65737548687379e+00
  1.54844590126125e+00
  8.85003440430803e-01
  1.71754964781258e+00
 -1.77240444183369e+00
  6.34755069264484e-01
  1.08825269910943e-01
  1.27679810259400e-01
  5.99621510139067e-02
  5.83395367839964e+00
  6.94517385554491e+00
  6.47033263889273e+00
  4.01128311017259e+00
  1.42249246390442e+00
  7.30059230239136e-01
  1.77804263529115e-01
  3.69064748804282e-02
  1.43307841944265e+01
  1.88627909885626e-01
  1.56794572814139e-02
  9.73106087343933e-01
  1.81224237364027e+00
  3.06211587998873e+00
  4.60751974293548e+00
  5.64285406447072e+00
  4.65737548687379e+00
  1.54844590126125e+00
  8.85003440430803e-01
  1.71754964781258e+00
 -1.77240444183369e+00
  6.34755069264484e-01
  1.08825269910943e-01
  1.27679810259400e-01
  5.99621510139067e-02
  5.83395367839964e+00
  6.94517385554491e+00
  6.47033263889273e+00
  4.01128311017259e+00
  1.42249246390442e+00
  7.30059230239136e-01
  1.77804263529115e-01
  3.69064748804282e-02
  1.43307841944265e+01
  1.88627909885626e-01
  1.56794572814139e-02
  9.73106087343933e-01
  1.81224237364027e+00
  3.06211587998873e+00
  4.60751974293548e+00
  5.64285406447072e+00
  4.65737548687379e+00
  1.54844590126125e+00
  8.85003440430803e-01
  1.71754964781258e+00
 -1.77240444183369e+00
  6.34755069264484e-01
  1.08825269910943e-01
  1.27679810259400e-01
  5.99621510139067e-02
  5.83395367839964e+00
  6.94517385554491e+00
  6.47033263889273e+00
  4.01128311017259e+00
  1.42249246390442e+00
  7.30059230239136e-01
  1.77804263529115e-01
  3.69064748804282e-02
  1.43307841944265e+01
  1.88627909885626e-01
  1.56794572814139e-02
  9.73106087343933e-01
  1.81224237364027e+00
  3.06211587998873e+00
  4.60751974293548e+00
  5.64285406447072e+00
  4.65737548687379e+00
  1.54844590126125e+00
  8.85003440430803e-01
  1.71754964781258e+00
 -1.77240444183369e+00
  6.34755069264484e-01
  1.08825269910943e-01
  1.27679810259400e-01
  5.99621510139067e-02
  5.83395367839964e+00
  6.94517385554491e+00
  6.47033263889273e+00
  4.01128311017259e+00
  1.42249246390442e+00
  7.30059230239136e-01
  1.77804263529115e-01
  3.69064748804282e-02
  1.43307841944265e+01
  1.88627909885626e-01
  1.56794572814139e-02
  9.73106087343933e-01
  1.81224237364027e+00
  3.06211587998873e+00
  4.60751974293548e+00
  5.64285406447072e+00
  4.65737548687379e+00
  1.54844590126125e+00
  8.85003440430803e-01
  1.71754964781258e+00
 -1.77240444183369e+00
  6.34755069264484e-01
  1.08825269910943e-01
  1.27679810259400e-01
  5.99621510139067e-02
  5.83395367839964e+00
  6.94517385554491e+00
  6.47033263889273e+00
  4.01128311017259e+00
  1.42249246390442e+00
  7.30059230239136e-01
  1.77804263529115e-01
  3.69064748804282e-02
  1.43307841944265e+01
  1.88627909885626e-01
  1.56794572814139e-02
  9.73106087343933e-01
  1.81224237364027e+00
  3.06211587998873e+00
  4.60751974293548e+00
  5.64285406447072e+00
  4.65737548687379e+00
  1.54844590126125e+00
  8.85003440430803e-01
  1.71754964781258e+00
 -1.77240444183369e+00
  6.34755069264484e-01
  1.08825269910943e-01
  1.27679810259400e-01
  5.99621510139067e-02
  5.83395367839964e+00
  6.94517385554491e+00
  6.47033263889273e+00
  4.01128311017259e+00
  1.42249246390442e+00
  7.30059230239136e-01
  1.77804263529115e-01
  3.69064748804282e-02
  1.43307841944265e+01
  1.88627909885626e-01
  1.56794572814139e-02
  9.73106087343933e-01
  1.81224237364027e+00
  3.06211587998873e+00
  4.60751974293548e+00
  5.64285406447072e+00
  4.65737548687379e+00
  1.54844590126125e+00
  8.85003440430803e-01
  1.71754964781258e+00
 -1.77240444183369e+00
  6.34755069264484e-01
  1.08825269910943e-01
  1.27679810259400e-01
  5.99621510139067e-02
  5.83395367839964e+00
  6.94517385554491e+00
  6.47033263889273e+00
  4.01128311017259e+00
  1.42249246390442e+00
  7.30059230239136e-01
  1.77804263529115e-01
  3.69064748804282e-02
  1.43307841944265e+01
  1.88627909885626e-01
  1.56794572814139e-02
  9.73106087343933e-01
  1.81224237364027e+00
  3.06211587998873e+00
  4.60751974293548e+00
  5.64285406447072e+00
  4.65737548687379e+00
  1.54844590126125e+00
  8.85003440430803e-01
  1.71754964781258e+00
 -1.77240444183369e+00
  6.34755069264484e-01
  1.08825269910943e-01
  1.27679810259400e-01
  5.99621510139067e-02
  5.83395367839964e+00
  6.94517385554491e+00
  6.47033263889273e+00
  4.01128311017259e+00
  1.42249246390442e+00
  7.30059230239136e-01
  1.77804263529115e-01
  3.69064748804282e-02
  1.43307841944265e+01
  1.88627909885626e-01
  1.56794572814139e-02
  9.73106087343933e-01
  1.81224237364027e+00
  3.06211587998873e+00
  4.60751974293548e+00
  5.64285406447072e+00
  4.65737548687379e+00
  1.54844590126125e+00
  8.85003440430803e-01
  1.71754964781258e+00
 -1.77240444183369e+00
  6.34755069264484e-01
  1.08825269910943e-01
  1.27679810259400e-01
  5.99621510139067e-02
  5.83395367839964e+00
  6.94517385554491e+00
  6.47033263889273e+00
  4.01128311017259e+00
  1.42249246390442e+00
  7.30059230239136e-01
  1.77804263529115e-01
  3.69064748804282e-02
  1.43307841944265e+01
  1.88627909885626e-01
  1.56794572814139e-02
  9.73106087343933e-01
  1.81224237364027e+00
  3.06211587998873e+00
  4.60751974293548e+00
  5.64285406447072e+00
  4.65737548687379e+00
  1.54844590126125e+00
  8.85003440430803e-01
  1.71754964781258e+00
 -1.77240444183369e+00
  6.34755069264484e-01
  1.08825269910943e-01
  1.27679810259400e-01
  5.99621510139067e-02
  5.83395367839964e+00
  6.94517385554491e+00
  6.47033263889273e+00
  4.01128311017259e+00
  1.42249246390442e+00
  7.30059230239136e-01
  1.77804263529115e-01
  3.69064748804282e-02
  1.43307841944265e+01
  1.88627909885626e-01
  1.56794572814139e-02
  9.73106087343933e-01
  1.81224237364027e+00
  3.06211587998873e+00
  4.60751974293548e+00
  5.64285406447072e+00
  4.65737548687379e+00
  1.54844590126125e+00
  8.85003440430803e-01
  1.71754964781258e+00
 -1.77240444183369e+00
  6.34755069264484e-01
  1.08825269910943e-01
  1.27679810259400e-01
  5.99621510139067e-02
  5.83395367839964e+00
  6.94517385554491e+00
  6.47033263889273e+00
  4.01128311017259e+00
  1.42249246390442e+00
  7.30059230239136e-01
  1.77804263529115e-01
  3.69064748804282e-02
  1.43307841944265e+01
  1.88627909885626e-01
  1.56794572814139e-02
  9.73106087343933e-01
  1.81224237364027e+00
  3.06211587998873e+00
  4.60751974293548e+00
  5.64285406447072e+00
  4.65737548687379e+00
  1.54844590126125e+00
  8.85003440430803e-01
  1.71754964781258e+00
 -1.77240444183369e+00
  6.34755069264484e-01
  1.08825269910943e-01
  1.27679810259400e-01
  5.99621510139067e-02
  5.83395367839964e+00
  6.94517385554491e+00
  6.47033263889273e+00
  4.01128311017259e+00
  1.42249246390442e+00
  7.30059230239136e-01
  1.77804263529115e-01
  3.69064748804282e-02
  1.43307841944265e+01
  1.88627909885626e-01
  1.56794572814139e-02
  9.73106087343933e-01
  1.81224237364027e+00
  3.06211587998873e+00
  4.60751974293548e+00
  5.64285406447072e+00
  4.65737548687379e+00
  1.54844590126125e+00
  8.85003440430803e-01
  1.71754964781258e+00
 -1.77240444183369e+00
  6.34755069264484e-01
  1.08825269910943e-01
  1.27679810259400e-01
  5.99621510139067e-02
  5.83395367839964e+00
  6.94517385554491e+00
  6.47033263889273e+00
  4.01128311017259e+00
  1.42249246390442e+00
  7.30059230239136e-01
  1.77804263529115e-01
  3.69064748804282e-02
  1.43307841944265e+01
  1.88627909885626e-01
  1.56794572814139e-02
  9.73106087343933e-01
  1.81224237364027e+00
  3.06211587998873e+00
  4.60751974293548e+00
  5.64285406447072e+00
  4.65737548687379e+00
  1.54844590126125e+00
  8.85003440430803e-01
  1.71754964781258e+00
 -1.77240444183369e+00
  6.34755069264484e-01
  1.08825269910943e-01
  1.27679810259400e-01
  5.99621510139067e-02
  5.83395367839964e+00
  6.94517385554491e+00
  6.47033263889273e+00
  4.01128311017259e+00
  1.42249246390442e+00
  7.30059230239136e-01
  1.77804263529115e-01
  3.69064748804282e-02
  1.43307841944265e+01
  1.88627909885626e-01
  1.56794572814139e-02
  9.73106087343933e-01
  1.81224237364027e+00
  3.06211587998873e+00
  4.60751974293548e+00
  5.64285406447072e+00
  4.65737548687379e+00
  1.54844590126125e+00
  8.85003440430803e-01
  1.71754964781258e+00
 -1.77240444183369e+00
  6.34755069264484e-01
  1.08825269910943e-01
  1.27679810259400e-01
  5.99621510139067e-02
  5.83395367839964e+00
  6.94517385554491e+00
  6.47033263889273e+00
  4.01128311017259e+00
  1.42249246390442e+00
  7.30059230239136e-01
  1.77804263529115e-01
  3.69064748804282e-02
  1.43307841944265e+01
  1.88627909885626e-01
  1.56794572814139e-02
  9.73106087343933e-01
  1.81224237364027e+00
  3.06211587998873e+00
  4.60751974293548e+00
  5.64285406447072e+00
  4.65737548687379e+00
  1.54844590126125e+00
  8.85003440430803e-01
  1.71754964781258e+00
 -1.77240444183369e+00
  6.34755069264484e-01
  1.08825269910943e-01
  1.27679810259400e-01
  5.99621510139067e-02
  5.83395367839964e+00
  6.94517385554491e+00
  6.47033263889273e+00
  4.01128311017259e+00
  1.42249246390442e+00
  7.30059230239136e-01
  1.77804263529115e-01
  3.69064748804282e-02
  1.43307841944265e+01
  1.88627909885626e-01
  1.56794572814139e-02
  9.73106087343933e-01
  1.81224237364027e+00
  3.06211587998873e+00
  4.60751974293548e+00
  5.64285406447072e+00
  4.65737548687379e+00
  1.54844590126125e+00
  8.85003440430803e-01
  1.71754964781258e+00
 -1.77240444183369e+00
  6.34755069264484e-01
  1.08825269910943e-01
  1.27679810259400e-01
  5.99621510139067e-02
  5.83395367839964e+00
  6.94517385554491e+00
  6.47033263889273e+00
  4.01128311017259e+00
  1.42249246390442e+00
  7.30059230239136e-01
  1.77804263529115e-01
  3.69064748804282e-02
  1.43307841944265e+01
  1.88627909885626e-01
  1.56794572814139e-02
  9.73106087343933e-01
  1.81224237364027e+00
  3.06211587998873e+00
  4.60751974293548e+00
  5.64285406447072e+00
  4.65737548687379e+00
  1.54844590126125e+00
  8.85003440430803e-01
  1.71754964781258e+00
 -1.77240444183369e+00
  6.34755069264484e-01
  1.08825269910943e-01
  1.27679810259400e-01
  5.99621510139067e-02
  5.83395367839964e+00
  6.94517385554491e+00
  6.47033263889273e+00
  4.01128311017259e+00
  1.42249246390442e+00
  7.30059230239136e-01
  1.77804263529115e-01
  3.69064748804282e-02
  1.43307841944265e+01
  1.88627909885626e-01
  1.56794572814139e-02
  9.73106087343933e-01
  1.81224237364027e+00
  3.06211587998873e+00
  4.60751974293548e+00
  5.64285406447072e+00
  4.65737548687379e+00
  1.54844590126125e+00
  8.85003440430803e-01
  1.71754964781258e+00
 -1.77240444183369e+00
  6.34755069264484e-01
  1.08825269910943e-01
  1.27679810259400e-01
  5.99621510139067e-02
  5.83395367839964e+00
  6.94517385554491e+00
  6.47033263889273e+00
  4.01128311017259e+00
  1.42249246390442e+00
  7.30059230239136e-01
  1.77804263529115e-01
  3.69064748804282e-02
  1.43307841944265e+01
  1.88627909885626e-01
  1.56794572814139e-02
  9.73106087343933e-01
  1.81224237364027e+00
  3.06211587998873e+00
  4.60751974293548e+00
  5.64285406447072e+00
  4.65737548687379e+00
  1.54844590126125e+00
  8.85003440430803e-01
  1.71754964781258e+00
 -1.77240444183369e+00
  6.34755069264484e-01
  1.08825269910943e-01
  1.27679810259400e-01
  5.99621510139067e-02
  5.83395367839964e+00
  6.94517385554491e+00
  6.47033263889273e+00
  4.01128311017259e+00
  1.42249246390442e+00
  7.30059230239136e-01
  1.77804263529115e-01
  3.69064748804282e-02
  1.43307841944265e+01
  1.88627909885626e-01
  1.56794572814139e-02
  9.73106087343933e-01
  1.81224237364027e+00
  3.06211587998873e+00
  4.60751974293548e+00
  5.64285406447072e+00
  4.65737548687379e+00
  1.54844590126125e+00
  8.85003440430803e-01
  1.71754964781258e+00
 -1.77240444183369e+00
  6.34755069264484e-01
  1.08825269910943e-01
  1.27679810259400e-01
  5.99621510139067e-02
  5.83395367839964e+00
  6.94517385554491e+00
  6.47033263889273e+00
  4.01128311017259e+00
  1.42249246390442e+00
  7.30059230239136e-01
  1.77804263529115e-01
  3.69064748804282e-02
  1.43307841944265e+01
  1.88627909885626e-01
  1.56794572814139e-02
  9.73106087343933e-01
  1.81224237364027e+00
  3.06211587998873e+00
  4.60751974293548e+00
  5.64285406447072e+00
  4.65737548687379e+00
  1.54844590126125e+00
  8.85003440430803e-01
  1.71754964781258e+00
 -1.77240444183369e+00
  6.34755069264484e-01
  1.08825269910943e-01
  1.27679810259400e-01
  5.99621510139067e-02
  5.83395367839964e+00
  6.94517385554491e+00
  6.47033263889273e+00
  4.01128311017259e+00
  1.42249246390442e+00
  7.30059230239136e-01
  1.77804263529115e-01
  3.69064748804282e-02
  1.43307841944265e+01
  1.88627909885626e-01
  1.56794572814139e-02
  8.59858245512954e-01
  1.60553055583268e+00
  2.74587786008374e+00
  4.29876744377514e+00
  5.87976632606916e+00
  6.31639832217741e+00
  2.98121475220647e+00
  9.41955963472117e-01
  8.01929161019723e-01
  4.01164806220299e-01
  2.01079940597691e-01
  3.05720173538001e+00
  3.38448394330487e+00
  2.94742621281071e+00
  1.71182714942223e+00
  6.43605792621033e-01
  1.61089725392340e-01
  7.14570901056904e+00
  7.64080219480683e-01
  3.28165495951497e+00
  8.59858245512954e-01
  1.60553055583268e+00
  2.74587786008374e+00
  4.29876744377514e+00
  5.87976632606916e+00
  6.31639832217741e+00
  2.98121475220647e+00
  9.41955963472117e-01
  8.01929161019723e-01
  4.01164806220299e-01
  2.01079940597691e-01
  3.05720173538001e+00
  3.38448394330487e+00
  2.94742621281071e+00
  1.71182714942223e+00
  6.43605792621033e-01
  1.61089725392340e-01
  7.14570901056904e+00
  7.64080219480683e-01
  3.28165495951497e+00
  8.59858245512954e-01
  1.60553055583268e+00
  2.74587786008374e+00
  4.29876744377514e+00
  5.87976632606916e+00
  6.31639832217741e+00
  2.98121475220647e+00
  9.41955963472117e-01
  8.01929161019723e-01
  4.01164806220299e-01
  2.01079940597691e-01
  3.05720173538001e+00
  3.38448394330487e+00
  2.94742621281071e+00
  1.71182714942223e+00
  6.43605792621033e-01
  1.61089725392340e-01
  7.14570901056904e+00
  7.64080219480683e-01
  3.28165495951497e+00
  8.59858245512954e-01
  1.60553055583268e+00
  2.74587786008374e+00
  4.29876744377514e+00
  5.87976632606916e+00
  6.31639832217741e+00
  2.98121475220647e+00
  9.41955963472117e-01
  8.01929161019723e-01
  4.01164806220299e-01
  2.01079940597691e-01
  3.05720173538001e+00
  3.38448394330487e+00
  2.94742621281071e+00
  1.71182714942223e+00
  6.43605792621033e-01
  1.61089725392340e-01
  7.14570901056904e+00
  7.64080219480683e-01
  3.28165495951497e+00
  8.59858245512954e-01
  1.60553055583268e+00
  2.74587786008374e+00
  4.29876744377514e+00
  5.87976632606916e+00
  6.31639832217741e+00
  2.98121475220647e+00
  9.41955963472117e-01
  8.01929161019723e-01
  4.01164806220299e-01
  2.01079940597691e-01
  3.05720173538001e+00
  3.38448394330487e+00
  2.94742621281071e+00
  1.71182714942223e+00
  6.43605792621033e-01
  1.61089725392340e-01
  7.14570901056904e+00
  7.64080219480683e-01
  3.28165495951497e+00
  8.59858245512954e-01
  1.60553055583268e+00
  2.74587786008374e+00
  4.29876744377514e+00
  5.87976632606916e+00
  6.31639832217741e+00
  2.98121475220647e+00
  9.41955963472117e-01
  8.01929161019723e-01
  4.01164806220299e-01
  2.01079940597691e-01
  3.05720173538001e+00
  3.38448394330487e+00
  2.94742621281071e+00
  1.71182714942223e+00
  6.43605792621033e-01
  1.61089725392340e-01
  7.14570901056904e+00
  7.64080219480683e-01
  3.28165495951497e+00
  8.59858245512954e-01
  1.60553055583268e+00
  2.74587786008374e+00
  4.29876744377514e+00
  5.87976632606916e+00
  6.31639832217741e+00
  2.98121475220647e+00
  9.41955963472117e-01
  8.01929161019723e-01
  4.01164806220299e-01
  2.01079940597691e-01
  3.05720173538001e+00
  3.38448394330487e+00
  2.94742621281071e+00
  1.71182714942223e+00
  6.43605792621033e-01
  1.61089725392340e-01
  7.14570901056904e+00
  7.64080219480683e-01
  3.28165495951497e+00
  8.59858245512954e-01
  1.60553055583268e+00
  2.74587786008374e+00
  4.29876744377514e+00
  5.87976632606916e+00
  6.31639832217741e+00
  2.98121475220647e+00
  9.41955963472117e-01
  8.01929161019723e-01
  4.01164806220299e-01
  2.01079940597691e-01
  3.05720173538001e+00
  3.38448394330487e+00
  2.94742621281071e+00
  1.71182714942223e+00
  6.43605792621033e-01
  1.61089725392340e-01
  7.14570901056904e+00
  7.64080219480683e-01
  3.28165495951497e+00
  8.59858245512954e-01
  1.60553055583268e+00
  2.74587786008374e+00
  4.29876744377514e+00
  5.87976632606916e+00
  6.31639832217741e+00
  2.98121475220647e+00
  9.41955963472117e-01
  8.01929161019723e-01
  4.01164806220299e-01
  2.01079940597691e-01
  3.05720173538001e+00
  3.38448394330487e+00
  2.94742621281071e+00
  1.71182714942223e+00
  6.43605792621033e-01
  1.61089725392340e-01
  7.14570901056904e+00
  7.64080219480683e-01
  3.28165495951497e+00
  8.59858245512954e-01
  1.60553055583268e+00
  2.74587786008374e+00
  4.29876744377514e+00
  5.87976632606916e+00
  6.31639832217741e+00
  2.98121475220647e+00
  9.41955963472117e-01
  8.01929161019723e-01
  4.01164806220299e-01
  2.01079940597691e-01
  3.05720173538001e+00
  3.38448394330487e+00
  2.94742621281071e+00
  1.71182714942223e+00
  6.43605792621033e-01
  1.61089725392340e-01
  7.14570901056904e+00
  7.64080219480683e-01
  3.28165495951497e+00
  8.59858245512954e-01
  1.60553055583268e+00
  2.74587786008374e+00
  4.29876744377514e+00
  5.87976632606916e+00
  6.31639832217741e+00
  2.98121475220647e+00
  9.41955963472117e-01
  8.01929161019723e-01
  4.01164806220299e-01
  2.01079940597691e-01
  3.05720173538001e+00
  3.38448394330487e+00
  2.94742621281071e+00
  1.71182714942223e+00
  6.43605792621033e-01
  1.61089725392340e-01
  7.14570901056904e+00
  7.64080219480683e-01
  3.28165495951497e+00
  8.59858245512954e-01
  1.60553055583268e+00
  2.74587786008374e+00
  4.29876744377514e+00
  5.87976632606916e+00
  6.31639832217741e+00
  2.98121475220647e+00
  9.41955963472117e-01
  8.01929161019723e-01
  4.01164806220299e-01
  2.01079940597691e-01
  3.05720173538001e+00
  3.38448394330487e+00
  2.94742621281071e+00
  1.71182714942223e+00
  6.43605792621033e-01
  1.61089725392340e-01
  7.14570901056904e+00
  7.64080219480683e-01
  3.28165495951497e+00
  8.59858245512954e-01
  1.60553055583268e+00
  2.74587786008374e+00
  4.29876744377514e+00
  5.87976632606916e+00
  6.31639832217741e+00
  2.98121475220647e+00
  9.41955963472117e-01
  8.01929161019723e-01
  4.01164806220299e-01
  2.01079940597691e-01
  3.05720173538001e+00
  3.38448394330487e+00
  2.94742621281071e+00
  1.71182714942223e+00
  6.43605792621033e-01
  1.61089725392340e-01
  7.14570901056904e+00
  7.64080219480683e-01
  3.28165495951497e+00
  8.59858245512954e-01
  1.60553055583268e+00
  2.74587786008374e+00
  4.29876744377514e+00
  5.87976632606916e+00
  6.31639832217741e+00
  2.98121475220647e+00
  9.41955963472117e-01
  8.01929161019723e-01
  4.01164806220299e-01
  2.01079940597691e-01
  3.05720173538001e+00
  3.38448394330487e+00
  2.94742621281071e+00
  1.71182714942223e+00
  6.43605792621033e-01
  1.61089725392340e-01
  7.14570901056904e+00
  7.64080219480683e-01
  3.28165495951497e+00
  8.59858245512954e-01
  1.60553055583268e+00
  2.74587786008374e+00
  4.29876744377514e+00
  5.87976632606916e+00
  6.31639832217741e+00
  2.98121475220647e+00
  9.41955963472117e-01
  8.01929161019723e-01
  4.01164806220299e-01
  2.01079940597691e-01
  3.05720173538001e+00
  3.38448394330487e+00
  2.94742621281071e+00
  1.71182714942223e+00
  6.43605792621033e-01
  1.61089725392340e-01
  7.14570901056904e+00
  7.64080219480683e-01
  3.28165495951497e+00
  8.59858245512954e-01
  1.60553055583268e+00
  2.74587786008374e+00
  4.29876744377514e+00
  5.87976632606916e+00
  6.31639832217741e+00
  2.98121475220647e+00
  9.41955963472117e-01
  8.01929161019723e-01
  4.01164806220299e-01
  2.01079940597691e-01
  3.05720173538001e+00
  3.38448394330487e+00
  2.94742621281071e+00
  1.71182714942223e+00
  6.43605792621033e-01
  1.61089725392340e-01
  7.14570901056904e+00
  7.64080219480683e-01
  3.28165495951497e+00
  8.59858245512954e-01
  1.60553055583268e+00
  2.74587786008374e+00
  4.29876744377514e+00
  5.87976632606916e+00
  6.31639832217741e+00
  2.98121475220647e+00
  9.41955963472117e-01
  8.01929161019723e-01
  4.01164806220299e-01
  2.01079940597691e-01
  3.05720173538001e+00
  3.38448394330487e+00
  2.94742621281071e+00
  1.71182714942223e+00
  6.43605792621033e-01
  1.61089725392340e-01
  7.14570901056904e+00
  7.64080219480683e-01
  3.28165495951497e+00
  8.59858245512954e-01
  1.60553055583268e+00
  2.74587786008374e+00
  4.29876744377514e+00
  5.87976632606916e+00
  6.31639832217741e+00
  2.98121475220647e+00
  9.41955963472117e-01
  8.01929161019723e-01
  4.01164806220299e-01
  2.01079940597691e-01
  3.05720173538001e+00
  3.38448394330487e+00
  2.94742621281071e+00
  1.71182714942223e+00
  6.43605792621033e-01
  1.61089725392340e-01
  7.14570901056904e+00
  7.64080219480683e-01
  3.28165495951497e+00
  8.59858245512954e-01
  1.60553055583268e+00
  2.74587786008374e+00
  4.29876744377514e+00
  5.87976632606916e+00
  6.31639832217741e+00
  2.98121475220647e+00
  9.41955963472117e-01
  8.01929161019723e-01
  4.01164806220299e-01
  2.01079940597691e-01
  3.05720173538001e+00
  3.38448394330487e+00
  2.94742621281071e+00
  1.71182714942223e+00
  6.43605792621033e-01
  1.61089725392340e-01
  7.14570901056904e+00
  7.64080219480683e-01
  3.28165495951497e+00
  8.59858245512954e-01
  1.60553055583268e+00
  2.74587786008374e+00
  4.29876744377514e+00
  5.87976632606916e+00
  6.31639832217741e+00
  2.98121475220647e+00
  9.41955963472117e-01
  8.01929161019723e-01
  4.01164806220299e-01
  2.01079940597691e-01
  3.05720173538001e+00
  3.38448394330487e+00
  2.94742621281071e+00
  1.71182714942223e+00
  6.43605792621033e-01
  1.61089725392340e-01
  7.14570901056904e+00
  7.64080219480683e-01
  3.28165495951497e+00
  8.59858245512954e-01
  1.60553055583268e+00
  2.74587786008374e+00
  4.29876744377514e+00
  5.87976632606916e+00
  6.31639832217741e+00
  2.98121475220647e+00
  9.41955963472117e-01
  8.01929161019723e-01
  4.01164806220299e-01
  2.01079940597691e-01
  3.05720173538001e+00
  3.38448394330487e+00
  2.94742621281071e+00
  1.71182714942223e+00
  6.43605792621033e-01
  1.61089725392340e-01
  7.14570901056904e+00
  7.64080219480683e-01
  3.28165495951497e+00
  8.59858245512954e-01
  1.60553055583268e+00
  2.74587786008374e+00
  4.29876744377514e+00
  5.87976632606916e+00
  6.31639832217741e+00
  2.98121475220647e+00
  9.41955963472117e-01
  8.01929161019723e-01
  4.01164806220299e-01
  2.01079940597691e-01
  3.05720173538001e+00
  3.38448394330487e+00
  2.94742621281071e+00
  1.71182714942223e+00
  6.43605792621033e-01
  1.61089725392340e-01
  7.14570901056904e+00
  7.64080219480683e-01
  3.28165495951497e+00
  8.59858245512954e-01
  1.60553055583268e+00
  2.74587786008374e+00
  4.29876744377514e+00
  5.87976632606916e+00
  6.31639832217741e+00
  2.98121475220647e+00
  9.41955963472117e-01
  8.01929161019723e-01
  4.01164806220299e-01
  2.01079940597691e-01
  3.05720173538001e+00
  3.38448394330487e+00
  2.94742621281071e+00
  1.71182714942223e+00
  6.43605792621033e-01
  1.61089725392340e-01
  7.14570901056904e+00
  7.64080219480683e-01
  3.28165495951497e+00
  8.59858245512954e-01
  1.60553055583268e+00
  2.74587786008374e+00
  4.29876744377514e+00
  5.87976632606916e+00
  6.31639832217741e+00
  2.98121475220647e+00
  9.41955963472117e-01
  8.01929161019723e-01
  4.01164806220299e-01
  2.01079940597691e-01
  3.05720173538001e+00
  3.38448394330487e+00
  2.94742621281071e+00
  1.71182714942223e+00
  6.43605792621033e-01
  1.61089725392340e-01
  7.14570901056904e+00
  7.64080219480683e-01
  3.28165495951497e+00
  8.59858245512954e-01
  1.60553055583268e+00
  2.74587786008374e+00
  4.29876744377514e+00
  5.87976632606916e+00
  6.31639832217741e+00
  2.98121475220647e+00
  9.41955963472117e-01
  8.01929161019723e-01
  4.01164806220299e-01
  2.01079940597691e-01
  3.05720173538001e+00
  3.38448394330487e+00
  2.94742621281071e+00
  1.71182714942223e+00
  6.43605792621033e-01
  1.61089725392340e-01
  7.14570901056904e+00
  7.64080219480683e-01
  3.28165495951497e+00
  8.59858245512954e-01
  1.60553055583268e+00
  2.74587786008374e+00
  4.29876744377514e+00
  5.87976632606916e+00
  6.31639832217741e+00
  2.98121475220647e+00
  9.41955963472117e-01
  8.01929161019723e-01
  4.01164806220299e-01
  2.01079940597691e-01
  3.05720173538001e+00
  3.38448394330487e+00
  2.94742621281071e+00
  1.71182714942223e+00
  6.43605792621033e-01
  1.61089725392340e-01
  7.14570901056904e+00
  7.64080219480683e-01
  3.28165495951497e+00
  8.59858245512954e-01
  1.60553055583268e+00
  2.74587786008374e+00
  4.29876744377514e+00
[...]
 -0.13083 -0.12894 -0.12661 -0.12621 -0.12086 -0.12046 -0.12046 -0.12043 -0.11991 -0.11947
 -0.11947 -0.11821 -0.11821 -0.11528 -0.11518 -0.11496 -0.11496 -0.11265 -0.11206 -0.11206
 -0.11182 -0.11066 -0.10876 -0.10876 -0.10729 -0.10729 -0.10708 -0.10700 -0.09919 -0.09896
 -0.09885 -0.09885 -0.09870 -0.09852 -0.09547 -0.09539 -0.09538 -0.09538 -0.09374 -0.09374
 0.02318 0.06097 0.07165 0.07171 0.07172 0.07172 0.08818 0.08996 0.08996 0.09026
 0.10698 0.10701 0.10701 0.10701 0.12326 0.12418 0.12418 0.12488 0.14389 0.14437
 0.14437 0.15974 0.15993 0.16031 0.17101 0.17127 0.17136 0.17136 0.17137 0.17161
 0.17162 0.17162 0.18679 0.18807 0.18816 0.18816 0.19061 0.19256 0.19256 0.19311
 0.19391 0.19396 0.20548 0.20548 0.21077 0.21507 0.21542 0.21542 0.21561 0.22357
 0.23122 0.23252 0.23252 0.23367 0.23764 0.23781 0.23781 0.23781 0.24345 0.24597
 0.24600 0.24600 0.25180 0.25180 0.25313 0.25356 0.26524 0.26819 0.26819 0.26856
 0.26934 0.27305 0.27310 0.27310 0.27325 0.27671 0.27671 0.28928 0.29163 0.29848
 0.29848 0.30003 0.30062 0.30072 0.30072 0.30074 0.30075 0.30094 0.30163 0.30306
 0.30315 0.30330 0.30330 0.30859 0.30959 0.31837 0.31837 0.31842 0.31852 0.32131
 0.32131 0.32903 0.33140 0.33140 0.33154 0.33530 0.33538 0.33544 0.33544 0.34256
 0.34417 0.34417 0.34426 0.35448 0.35590 0.35591 0.35591 0.35596 0.35753 0.35753
 0.35897 0.36216 0.36216 0.36442 0.36503 0.36503 0.36552 0.37288 0.37386 0.37434
 0.37434 0.37537 0.37937 0.37965 0.37965 0.38004 0.38110 0.38668 0.38697 0.39257
 0.39257 0.39571 0.39662 0.39801 0.39801 0.40007 0.40007 0.40012 0.40048 0.40075
 0.40075 0.40083 0.40089 0.40155 0.41012 0.41012 0.41182 0.41373 0.41373 0.41401
 0.41587 0.41631 0.41686 0.41695 0.41695 0.41737 0.41749 0.41839 0.42372 0.43419
 0.43419 0.43568 0.44179 0.45411 0.45493 0.45493 0.45608 0.46671 0.46879 0.47243
 0.47243 0.47256 0.47344 0.47528 0.47528 0.47563 0.47578 0.47662 0.47662 0.47982
 0.48040 0.48048 0.48048 0.48064 0.48090 0.48588 0.48839 0.48839 0.48848 0.49089
 0.49270 0.49270 0.49310 0.51553 0.51757 0.51757 0.51780 0.51892 0.51983 0.51997
 0.51997 0.52019 0.52452 0.52476 0.52819 0.52819 0.52969 0.52992 0.53064 0.53064
 0.53146 0.53146 0.53208 0.53309 0.53375 0.53375 0.53376 0.53376 0.53936 0.53994
 0.54308 0.54308 0.54310 0.54327 0.54327 0.54348 0.54781 0.55583 0.55583 0.55592
 0.55958 0.55960 0.56384 0.56384 0.56442 0.56461 0.56461 0.56471 0.56489 0.56866
 0.57058 0.57058 0.57463 0.57521 0.58041 0.58041 0.58157 0.58157 0.59322 0.59322
 0.59389 0.59407 0.59643 0.59933 0.59933 0.60029 0.60029 0.60224 0.60262 0.60262
 0.60388 0.61703 0.61931 0.62009 0.62009 0.62082 0.62082 0.62082 0.62963 0.63055
 0.63128 0.63128 0.63878 0.63878 0.63941 0.63954 0.64025 0.65082 0.65626 0.65820
 0.66411 0.66411 0.66480 0.66535 0.67240 0.67240 0.67571 0.67571 0.67808 0.67842
 0.68345 0.68422 0.68472 0.68501 0.69350 0.69350 0.69377 0.69377 0.69821 0.69821
 0.69993 0.69995 0.70034 0.70040 0.70187 0.70187 0.70591 0.70624 0.70624 0.70628
 0.70868 0.71014 0.71088 0.71208 0.71208 0.71285 0.71438 0.72428 0.72428 0.73238
 0.74722 0.74960 0.74960 0.75715 0.75851 0.75950 0.75950 0.76244 0.76719 0.76906
 0.76906 0.77010 0.77029 0.78285 0.78364 0.78364 0.79004 0.79038 0.79185 0.79185
 0.79316 0.79610 0.79610 0.80034 0.80095 0.80618 0.80653 0.80653 0.82155 0.82155
 0.82193 0.82305 0.82405 0.82406 0.82406 0.82747 0.82759 0.82847 0.82850 0.82850
 0.82854 0.83576 0.83610 0.83610 0.83625 0.83780 0.83863 0.83863 0.83879 0.84065
 0.84211 0.85148 0.85148 0.85432 0.85444 0.85444 0.85842 0.85847 0.85859 0.86100
 0.86100 0.86172 0.86276 0.86284 0.86321 0.86321 0.86442 0.86629 0.86749 0.86749
 0.86836 0.86889 0.86964 0.87093 0.87093 0.87695 0.87791 0.87791 0.88154 0.88744
 0.88744 0.89091 0.90273 0.90273 0.90302 0.93101 0.93101 0.93118 0.93127 0.93786
 0.94017 0.94017 0.94371 0.94510 0.94615 0.94674 0.94683 0.94683 0.94969 0.95138
 0.95203 0.95203 0.95348 0.95385 0.95476 0.95476 0.95485 0.95565 0.95687 0.95787
 0.95864 0.96307 0.96506 0.96506 0.96932 0.96932 0.97264 0.97303 0.97447 0.97449
 0.97449 0.97465 0.97486 0.97624 0.97624 0.97821 0.97821 0.98077 0.98088 0.98328
 0.98371 0.98371 0.98441 0.98637 0.98744 0.98744 0.99005 0.99233 0.99233 0.99242
 0.99263 1.01344 1.01344 1.02245 1.02245 1.02629 1.02812 1.02864 1.02864 1.03367
 1.03699 1.03699 1.04108 1.05309 1.05309 1.05765 1.05951 1.06134 1.06559 1.06559
 1.06748 1.06904 1.06904 1.06944 1.06965 1.07065 1.07068 1.07131 1.07131 1.07154
 1.07159 1.07242 1.07338 1.07338 1.07533 1.07703 1.07703 1.07857 1.08150 1.09215
 1.09370 1.09370 1.09827 1.09827 1.09924 1.10067 1.10274 1.10301 1.10661 1.10661
 1.10708 1.11392 1.11506 1.11534 1.11534 1.11866 1.12190 1.12204 1.12204 1.12240
 1.12240 1.12328 1.12337 1.12524 1.12593 1.12679 1.13666 1.14246 1.14246 1.14572
 1.14572 1.16158 1.16394 1.16394 1.16685 1.17825 1.18051 1.18646 1.18646 1.20268
 1.20441 1.20442 1.20442 1.21086 1.21690 1.23702 1.24301 1.24301 1.24515 1.24708
 1.25044 1.25111 1.25147 1.25147 1.25480 1.25587 1.26154 1.26154 1.26493 1.26493
 1.27179 1.27768 1.27801 1.27801 1.28090 1.28153 1.28256 1.28357 1.28357 1.29924
 1.29924 1.30381 1.30527 1.31347 1.31513 1.31513 1.32803 1.32803 1.33013 1.33683
 1.34166 1.34166 1.34221 1.34290 1.34356 1.34967 1.34967 1.35340 1.35576 1.35576
 1.35830 1.36817 1.37451 1.38909 1.38909 1.40239 1.40239 1.40443 1.40695 1.40802
 1.40812 1.40891 1.40891 1.41892 1.41892 1.43736 1.44484 1.45048 1.45297 1.45297
 1.45826 1.46292 1.46292 1.46649 1.46750 1.47130 1.47130 1.47435 1.47475 1.48057
 1.48057 1.48252 1.48252 1.48888 1.49224 1.50071 1.50072 1.50253 1.50431 1.50461
 1.50602 1.50602 1.50829 1.50837 1.50837 1.51040 1.51040 1.51044 1.51672 1.51730
 1.51815 1.51979 1.52168 1.52168 1.52558 1.52888 1.53228 1.53228 1.53806 1.53847
 1.54316 1.54670 1.56032 1.56032 1.56357 1.56368 1.56506 1.56506 1.56891 1.56891
 1.57514 1.57566 1.57566 1.57601 1.57611 1.58065 1.58165 1.58166 1.58315 1.59272
 1.59449 1.59813 1.59813 1.61320 1.61320 1.62987 1.63238 1.63294 1.63343 1.63490
 1.63492 1.63492 1.63620 1.63717 1.63717 1.63886 1.63908 1.63917 1.63961 1.63961
 1.63971 1.64262 1.64262 1.64284 1.64775 1.64776 1.65125 1.65162 1.65586 1.65586
 1.65596 1.65652 1.65723 1.65723 1.67780 1.67833 1.67833 1.68016 1.68143 1.68143
 1.68154 1.68609 1.70480 1.70480 1.73619 1.74304 1.74304 1.75087 1.75558 1.75864
 1.76096 1.76096 1.76820 1.80722 1.81704 1.81704 1.82670 1.84847 1.90804 1.91033
 1.91261 1.91261 1.91351 1.92239 1.92239 1.92275 1.93316 1.93376 1.93545 1.93545
 1.94340 1.94387 1.94815 1.94815 1.95066 1.96156 1.96429 1.96513 1.96513 1.96752
 1.96821 1.97768 1.97768 1.98506 1.98536 1.98956 1.98956 1.99713 1.99814 1.99990
 2.00023 2.00023 2.00132 2.00668 2.00722 2.00723 2.01927 2.01963 2.02300 2.02300
 2.03234 2.03235 2.04848 2.04850 2.04860 2.04860 2.04862 2.04878 2.05339 2.05388
 2.05389 2.05404 2.05716 2.06030 2.06030 2.06260 2.06405 2.06405 2.07736 2.08071
 2.08345 2.08345 2.08452 2.08513 2.08931 2.08931 2.09003 2.09022 2.09183 2.09183
 2.09221 2.09253 2.09286 2.09334 2.09334 2.09582 2.09593 2.09642 2.09642 2.09907
 2.10525 2.10595 2.11267 2.11267 2.13930 2.14169 2.14169 2.14224 2.14463 2.14646
 2.14897 2.15359 2.15377 2.15474 2.15475 2.16165 2.16165 2.16685 2.17055 2.17055
 2.17263 2.17398 2.19215 2.19380 2.20254 2.20254 2.21976 2.21986 2.22319 2.22319
 2.23577 2.23586 2.23586 2.23637 2.25658 2.26943 2.27172 2.27313 2.27554 2.27554
 2.28287 2.29535 2.29935 2.30047 2.31649 2.31649 2.31989 2.32063 2.32089 2.32105
 2.32105 2.33245 2.33245 2.33389 2.33389 2.35474 2.37925 2.37997 2.37997 2.38098
 2.39161 2.42898 2.44229 2.44605 2.44765 2.45864 2.46211 2.46335 2.46335 2.48517
 2.48540 2.48547 2.48547 2.49185 2.49387 2.49387 2.49387 2.49828 2.50073 2.50074
 2.50320 2.51072 2.51072 2.51075 2.52124 2.52617 2.52617 2.52808 2.54682 2.55123
 2.55812 2.56127 2.56127 2.56968 2.58270 2.58270 2.58471 2.58627 2.59486 2.61408
 2.62077 2.62077 2.62744 2.63521 2.63881 2.63881 2.65336 2.65913 2.66111 2.66111
 2.66168 2.66847 2.66935 2.67033 2.67033 2.67552 2.67552 2.68122 2.71160 2.71691
 2.71691 2.72961 2.73237 2.73237 2.73278 2.76018 2.76105 2.76170 2.76170 2.76990
 2.77061 2.77077 2.77310 2.77310 2.77534 2.77535 2.78349 2.78655 2.78655 2.78764
 2.79229 2.79229 2.79435 2.84094 2.92691 2.92691 2.94685 2.94685 2.97725 2.97726
 3.02745 3.03742 3.04077 3.04077 3.05358 3.05572 3.05811 3.06265 3.06265 3.07455
 3.08459 3.08459 3.08833 3.08976 3.09235 3.10532 3.10943 3.11048 3.11386 3.11386
 3.11877 3.11878 3.12883 3.15385 3.15385 3.17413 3.17738 3.17738 3.19904 3.21017
 3.21318 3.21318 3.21732 3.21854 3.22319 3.22319 3.23083 3.23283 3.23283 3.23339
 3.23690 3.23710 3.23745 3.23745 3.24156 3.25250 3.25250 3.25401 3.25433 3.27059
 3.27059 3.27536 3.27609 3.27623 3.27648 3.27648 3.28235 3.28368 3.33584 3.33584
 3.37801 3.38088 3.38115 3.38305 3.38375 3.38375 3.38682 3.38682 3.38686 3.39487
 3.40962 3.41566 3.41566 3.42535 3.43244 3.43244 3.44486 3.46272 3.46272 3.47125
 3.48524 3.48524 3.49500 3.49705 3.49705 3.50172 3.50172 3.51512 3.52749 3.53520
 3.53872 3.55001 3.55323 3.55533 3.55533 3.55836 3.55836 3.55916 3.56910 3.56910
 3.59598 3.71186 3.71186 3.74185 3.74351 3.74356 3.74415 3.75205 3.75205 3.77017
 3.87030 3.87030 3.87077 3.87122 3.87184 3.87253 3.87253 3.87709 3.87746 3.87746
 3.88106 3.90586 3.94421 3.94421 3.94423 3.96082 3.97234 3.97266 3.97266 3.97415
 3.97538 3.97538 3.97782 3.97792 3.97949 3.98951 3.99064 3.99064 4.00371 4.16582
 4.17630 4.22583 4.22583 4.27542 4.46538 4.64184 4.77101 4.89200 4.89200 4.96538
 5.03156 5.03156 5.15168 5.15969 5.16170 5.16237 5.16237 5.16251 5.16332 5.16395
 5.16522 5.16533 5.16554 5.16554 5.16567 5.16584 5.16584 5.16609 5.16609 5.16638
 5.16643 5.16687 5.16788 5.16788 5.16814 5.16846 5.16852 5.16852 5.16939 5.16939
 5.17086 5.17086 5.17136 5.17229 5.17243 5.17243 5.17284 5.17316 5.17594 5.17653
 5.17690 5.17754 5.17754 5.18200 5.18222 5.18233 5.18247 5.18247 5.18285 5.18285
 5.18347 5.18388 5.18388 5.18388 5.18530 5.18620 5.18620 5.18620 5.18630 5.18711
 5.18711 5.18711 5.18887 5.18930 5.18930 5.18940 5.18972 5.18994 5.18994 5.19003
 5.19005 5.19011 5.19091 5.19116 5.19116 5.19335 5.19766 5.19767 5.20056 5.20249
 5.20393 5.20394 5.20417 5.20417 5.20484 5.20545 5.20545 5.20546 5.20642 5.20706
 5.20783 5.20783 5.20823 5.20823 5.20892 5.20941 5.21204 5.21224 5.21224 5.21618
 5.21627 5.21637 5.21693 5.21693 5.21715 5.21917 5.21917 5.22466 5.22499 5.22514
 5.22526 5.22526 5.22605 5.22605 5.22756 5.22857 5.22857 5.23156 5.23400 5.23500
 5.23690 5.23691 5.23878 5.23930 5.24081 5.24191 5.24346 5.24346 5.24354 5.24418
 5.24419 5.24499 5.25019 5.25019 5.25132 5.25132 5.25826 5.25932 5.26166 5.27726
 5.27895 5.28004 5.28004 5.28118 5.28118 5.28540 5.28673 5.28730 5.28846 5.28846
 5.29059 5.29251 5.29680 5.29949 5.29949 5.30784 5.30784 5.31325 5.31739 5.33485
 5.33536 5.33571 5.33620 5.33620 5.33668 5.33668 5.33713 5.34082 5.34762 5.35017
 5.35441 5.35441 5.35492 5.35644 5.35644 5.35665 5.35683 5.35816 5.35958 5.35959
 5.36275 5.36276 5.36497 5.36623 5.37479 5.37582 5.37582 5.37725 5.38743 5.38813
 5.38824 5.38824 5.39348 5.39348 5.39493 5.39496 5.39592 5.39592 5.40948 5.41055
 5.41091 5.41091 5.41344 5.41415 5.41433 5.41433 5.41788 5.41984 5.41996 5.41996
 5.42232 5.42233 5.42940 5.42940 5.45413 5.45413 5.46353 5.46353 5.47270 5.47516
 5.47782 5.47875 5.47875 5.47927 5.48691 5.48691 5.81850 5.98258 5.98581 5.98581
 5.99628 6.02384 6.02675 6.02675 6.04774 6.08069 6.09407 6.13999 6.22959 6.23122
 6.23159 6.23159 6.24076 6.24561 6.24561 6.24950 6.25169 6.26109 6.29769 6.29769
 6.30093 6.30132 6.30328 6.30328 6.30798 6.30798 6.31019 6.31019 6.31052 6.31137
 6.31350 6.31351 6.31356 6.31552 6.31576 6.31587 6.31882 6.31899 6.32151 6.32385
 6.32385 6.32619 6.32740 6.32740 6.34600 6.34601 6.34879 6.35970 6.36001 6.36038
 6.36038 6.36117 6.36117 6.36129 6.36392 6.36432 6.36614 6.36614 6.36650 6.37863
 6.38967 6.39236 6.39286 6.39581 6.39810 6.39871 6.40055 6.40055 6.40085 6.40391
 6.40391 6.41731 6.41757 6.41933 6.41933 6.41977 6.42156 6.42260 6.42260 6.43293
 6.43620 6.43692 6.43692 6.44783 6.45939 6.45957 6.45961 6.45961 6.46333 6.46934
 6.47037 6.47037 6.47204 6.47422 6.47719 6.47719 6.47807 6.47929 6.47962 6.47962
 6.47969 6.48293 6.48293 6.48352 6.48440 6.48468 6.48468 6.48519 6.48788 6.48815
 6.49159 6.49159 6.49439 6.49498 6.49589 6.49589 6.49603 6.49668 6.49668 6.49850
 6.51222 6.52457 6.52457 6.52910 6.53035 6.53491 6.53491 6.54174 6.55154 6.55235
 6.55235 6.55264 6.55315 6.55393 6.55715 6.55715 6.55765 6.56527 6.56527 6.56826
 6.56952 6.56952 6.57105 6.57122 6.57122 6.57198 6.57241 6.57241 6.57667 6.57667
 6.57747 6.58301 6.58876 6.59008 6.59028 6.59028 6.59057 6.59080 6.59222 6.59222
 6.59424 6.59424 6.59831 6.61075 6.61086 6.61086 6.61095 6.61450 6.61450 6.61453
 6.61458 6.61598 6.61598 6.61625 6.61660 6.61860 6.61860 6.62076 6.62296 6.62379
 6.62379 6.62400 6.62634 6.62634 6.62686 6.62756 6.62756 6.63807 6.64791 6.64873
 6.64873 6.65744 6.66402 6.66434 6.66434 6.66448 6.67144 6.67149 6.67149 6.67220
 6.68030 6.68079 6.68107 6.68179 6.68179 6.68256 6.68359 6.68359 6.68397 6.68446
 6.68453 6.69092 6.69092 6.69185 6.69689 6.69689 6.70197 6.70354 6.70354 6.70364
 6.72797 6.72827 6.72827 6.73104 6.73195 6.73195 6.74157 6.74325 6.74374 6.74374
 6.74562 6.75109 6.75109 6.75475 6.75777 6.76317 6.76394 6.76406 6.76406 6.77467
 6.77467 6.77906 6.78121 6.78430 6.78430 6.78527 6.78635 6.79164 6.81303 6.81940
 6.84807 6.84823 6.85042 6.85042 6.85420 6.86204 6.86204 6.86530 6.86530 6.86776
 6.87062 6.87062 6.87322 6.87425 6.87426 6.87444 6.87444 6.87616 6.88264 6.89293
 6.89324 6.89324 6.89387 6.89950 6.89950 6.90543 6.90543 6.90556 6.90565 6.90671
 6.90730 6.90730 6.91101 6.91462 6.91462 6.91838 6.92049 6.92073 6.92073 6.92103
 6.92882 6.99297 7.00812 7.00812 7.01237 7.01394 7.02165 7.02187 7.02271 7.02271
 7.02330 7.02609 7.02683 7.02683 7.04251 7.05063 7.05842 7.05842 7.09505 7.10203
 7.10956 7.10956 7.11109 7.15863 7.16738 7.17481 7.17836 7.18166 7.18166 7.18474
 7.18484 7.18700 7.18701 7.20982 7.22065 7.23459 7.23469 7.23469 7.23604 7.26540
 7.27311 7.27427 7.27427 7.27547 7.27737 7.28113 7.28140 7.28179 7.28180 7.28539
 7.31464 7.31464 7.31933 7.33789 7.33790 7.35010 7.39529 7.41077 7.44063 7.46657
 7.49236 7.49236 7.64520 8.03422 8.03422 8.55662 9.32841 9.32841 9.51715 9.51731
 9.63039 9.92891 9.92892 10.87868 11.74285 19.47942 43.81170 43.82034 43.82034 43.82506
 43.83408 43.84043 43.84390 43.84390 43.85236 43.85729 43.86187 43.86187 43.89170 43.98436
 43.98436 43.98697 44.00809 44.03221 44.03221 44.03315 44.03672 44.03687 44.03985 44.03986
 44.04283 44.05130 44.05130 44.05180 44.05426 44.20646 44.31711 44.33976 66.47836 126.94734

 ---------------------------------------------------------------------------
 VBM is at 0-th k-point with -2.55091 eV
 CBM is at 0-th k-point with 0.63070 eV
 Band gap is 3.18162 eV


           Ground-State Mulliken Net Atomic Charges

      Atom                 Charge (a.u.)          Spin (a.u.)
   --------------------------------------------------------
      1 Mg              (11.898017,-0.000000)    (0.000000,0.000000)
      2 Mg               (1.177295,-0.000000)    (0.000000,0.000000)
      3 Mg               (1.268434,-0.000000)    (0.000000,0.000000)
      4 Mg               (1.229282,-0.000000)    (0.000000,0.000000)
      5 Mg               (1.229259,-0.000000)    (0.000000,0.000000)
      6 Mg               (1.229270,-0.000000)    (0.000000,0.000000)
      7 Mg               (1.229284,-0.000000)    (0.000000,0.000000)
      8 Mg               (1.268433,-0.000000)    (0.000000,0.000000)
      9 Mg               (1.229257,-0.000000)    (0.000000,0.000000)
     10 Mg               (1.268413,-0.000000)    (0.000000,0.000000)
     11 Mg               (1.229263,-0.000000)    (0.000000,0.000000)
     12 Mg               (1.177292,-0.000000)    (0.000000,0.000000)
     13 Mg               (1.268438,-0.000000)    (0.000000,0.000000)
     14 Mg               (1.229263,-0.000000)    (0.000000,0.000000)
     15 Mg               (1.177291,-0.000000)    (0.000000,0.000000)
     16 Mg               (1.229271,-0.000000)    (0.000000,0.000000)
     17 Mg               (1.177291,-0.000000)    (0.000000,0.000000)
     18 Mg               (4.688904,-0.000000)    (0.000000,0.000000)
     19 Mg               (1.291491,-0.000000)    (0.000000,0.000000)
     20 Mg               (1.249337,-0.000000)    (0.000000,0.000000)
     21 Mg               (0.841093,-0.000000)    (0.000000,0.000000)
     22 Mg               (1.291485,-0.000000)    (0.000000,0.000000)
     23 Mg               (0.841090,-0.000000)    (0.000000,0.000000)
     24 Mg               (1.369037,-0.000000)    (0.000000,0.000000)
     25 Mg               (1.587263,-0.000000)    (0.000000,0.000000)
     26 Mg               (1.369040,-0.000000)    (0.000000,0.000000)
     27 Mg               (1.369049,-0.000000)    (0.000000,0.000000)
     28 Mg               (1.291486,-0.000000)    (0.000000,0.000000)
     29 Mg               (0.841079,-0.000000)    (0.000000,0.000000)
     30 Mg               (1.291446,-0.000000)    (0.000000,0.000000)
     31 Mg               (1.369026,-0.000000)    (0.000000,0.000000)
     32 Mg               (1.587201,-0.000000)    (0.000000,0.000000)
     33  O              (-3.158908,-0.000000)    (0.000000,0.000000)
     34  O              (-1.337512,-0.000000)    (0.000000,0.000000)
     35  O              (-1.335188,-0.000000)    (0.000000,0.000000)
     36  O              (-1.330285,-0.000000)    (0.000000,0.000000)
     37  O              (-1.335194,-0.000000)    (0.000000,0.000000)
     38  O              (-1.335179,-0.000000)    (0.000000,0.000000)
     39  O              (-1.334644,-0.000000)    (0.000000,0.000000)
     40  O              (-1.334542,-0.000000)    (0.000000,0.000000)
     41  O              (-1.334541,-0.000000)    (0.000000,0.000000)
     42  O              (-1.334544,-0.000000)    (0.000000,0.000000)
     43  O              (-1.337518,-0.000000)    (0.000000,0.000000)
     44  O              (-1.334545,-0.000000)    (0.000000,0.000000)
     45  O              (-1.337519,-0.000000)    (0.000000,0.000000)
     46  O              (-1.330296,-0.000000)    (0.000000,0.000000)
     47  O              (-1.342910,-0.000000)    (0.000000,0.000000)
     48  O              (-1.337516,-0.000000)    (0.000000,0.000000)
     49  O              (-1.335188,-0.000000)    (0.000000,0.000000)
     50  O              (-1.316485,-0.000000)    (0.000000,0.000000)
     51  O              (-1.317720,-0.000000)    (0.000000,0.000000)
     52  O              (-1.317710,-0.000000)    (0.000000,0.000000)
     53  O              (-1.317725,-0.000000)    (0.000000,0.000000)
     54  O              (-1.316484,-0.000000)    (0.000000,0.000000)
     55  O              (-1.317712,-0.000000)    (0.000000,0.000000)
     56  O              (-1.317715,-0.000000)    (0.000000,0.000000)
     57  O              (-1.317724,-0.000000)    (0.000000,0.000000)
     58  O              (-1.365729,-0.000000)    (0.000000,0.000000)
     59  O              (-1.365726,-0.000000)    (0.000000,0.000000)
     60  O              (-1.317725,-0.000000)    (0.000000,0.000000)
     61  O              (-1.317724,-0.000000)    (0.000000,0.000000)
     62  O              (-1.365728,-0.000000)    (0.000000,0.000000)
     63  O              (-1.365725,-0.000000)    (0.000000,0.000000)
     64  O              (-1.316488,-0.000000)    (0.000000,0.000000)
   --------------------------------------------------------
  Sum of atomic charges =     (-0.000000,-0.000000)
  Sum of spin   charges =       (0.000000,0.000000)



 Total job time:  7004.02 s.
 Wed Sep 17 13:01:05 2025


        *************************************************************
        *                                                           *
        *  Thank you very much for using QCPBC. Have a nice day.    *
        *                                                           *
        *************************************************************

Running job 1 of 1
