                  Welcome to Q-Chem
           with Periodic Boundary Condition
     A Quantum Leap Into The Future Of Chemistry

 Adam Rettig, Xintian Feng, Meng-Fu Chen, Hieu Dinh, Stephen Quiton,
 Anton Ni, Paul J. Robinson, Jinghong Zhang, Joonho Lee

Contributors to earlier versions of Q-Chem not listed above:
 Evgeny Epifanovsky, Leo Cunha, Jerome F. Gonthier, Kuan-Yu Liu
 Input file: /scratch/bdxq/hdinh//mgo_co_slab_def2tzvp.scratch20250814013018/mgo_co_slab_def2tzvp.0
 Scratch folder: /scratch/bdxq/hdinh//mgo_co_slab_def2tzvp.scratch20250814013018
 Auxillary files located at: /u/hdinh/qcpbc/qcaux
 Q-Chem begins on Thu Aug 14 01:30:19 2025

 -------------------------------------------------------------
 User input:
 -------------------------------------------------------------
 $lattice
 3
 11.9443159104 0.0000000000 0.0000000000
 0.0000000000 11.9443159104 0.0000000000
 0.0000000000 0.0000000000 21.6602222298
 $end
 
 $unitcell
 ABSOLUTE
 0 1
 C   1.4930428341    1.4930432491    5.5284856213
 Mg   0.0000000000    0.0000000000    1.0000000000
 Mg   8.9582369328    5.9721579552    1.0000000000
 Mg   2.9860789776    5.9721579552    1.0000000000
 Mg   2.9860789776    8.9582369328    1.0000000000
 Mg   5.9721579552    0.0000000000    1.0000000000
 Mg   5.9721579552    2.9860789776    1.0000000000
 Mg   5.9721579552    5.9721579552    1.0000000000
 Mg   8.9582369328    2.9860789776    1.0000000000
 Mg   5.9721579552    8.9582369328    1.0000000000
 Mg   8.9582369328    0.0000000000    1.0000000000
 Mg   2.9860789776    2.9860789776    1.0000000000
 Mg   8.9582369328    8.9582369328    1.0000000000
 Mg   0.0000000000    8.9582369328    1.0000000000
 Mg   0.0000000000    2.9860789776    1.0000000000
 Mg   0.0000000000    5.9721579552    1.0000000000
 Mg   2.9860789776    0.0000000000    1.0000000000
 Mg   1.4930343349    1.4930374153    3.1511187175
 Mg   7.4651977897   10.4517004415    3.1114386205
 Mg   7.4651969790    7.4651968898    3.1112699448
 Mg   1.4930327857    4.4811832720    3.1056362779
 Mg   7.4651966404    4.4786922443    3.1114383107
 Mg   4.4811624032    1.4930368520    3.1056318890
 Mg  10.4496839597    4.4807048989    3.1095898700
 Mg   1.4930399629    7.4651963524    3.1116080311
 Mg  10.4496925734   10.4496968378    3.1095846708
 Mg   4.4807088948   10.4496904623    3.1095885984
 Mg   4.4786954624    7.4651978298    3.1114386978
 Mg   1.4930424686   10.4492084126    3.1056383774
 Mg  10.4516980458    7.4651970662    3.1114406695
 Mg   4.4807013212    4.4807040921    3.1095854125
 Mg   7.4651986133    1.4930389816    3.1116104730
 Mg  10.4492249714    1.4930441995    3.1056280117
 O  10.4512759328    1.4930390000    1.0000000000
 O   4.4791179776   10.4512759328    1.0000000000
 O   7.4651969552    1.4930390000    1.0000000000
 O   4.4791179776    4.4791179776    1.0000000000
 O  10.4512759328    4.4791179776    1.0000000000
 O   7.4651969552    7.4651969552    1.0000000000
 O   7.4651969552   10.4512759328    1.0000000000
 O   7.4651969552    4.4791179776    1.0000000000
 O   4.4791179776    7.4651969552    1.0000000000
 O   1.4930390000   10.4512759328    1.0000000000
 O  10.4512759328    7.4651969552    1.0000000000
 O   1.4930390000    4.4791179776    1.0000000000
 O   1.4930390000    7.4651969552    1.0000000000
 O   1.4930390000    1.4930390000    1.0000000000
 O   4.4791179776    1.4930390000    1.0000000000
 O  10.4512759328   10.4512759328    1.0000000000
 O   8.9580238897    5.9723685818    3.1594644112
 O   8.9570961456    2.9857717252    3.1600752389
 O   8.9570985067    0.0003085838    3.1600738373
 O   2.9857747423    8.9570945142    3.1600737733
 O   5.9723690642    5.9723696033    3.1594610725
 O   5.9732960489    2.9857717265    3.1600713997
 O   5.9732976356    0.0003062885    3.1600713024
 O   2.9857711850    5.9732998192    3.1600740469
 O   2.9950544541    2.9950623702    3.1548459568
 O   2.9950599166   -0.0089867212    3.1548507549
 O   0.0003060319    8.9570959750    3.1600745678
 O   0.0003045736    5.9732996331    3.1600758940
 O  -0.0089879078    2.9950667318    3.1548429191
 O  -0.0089805134   -0.0089799254    3.1548482730
 O   5.9723706153    8.9580251994    3.1594625961
 O   8.9580250454    8.9580263132    3.1594616543
 O   1.4930495812    1.4930407413    6.6690780399
 $end
 
 $rem
 jobtype = sp
 method = pbe
 dft_d = 6
 scf_convergence = 5
 scf_guess = autosad
 scf_algorithm = gdm
 basis = def2-tzvp
 aux_basis = rij-def2-tzvp
 input_bohr = false
 is_basis_uctr = true
 
 mp_mesh = [1,1,1]
 
 integral_direct true
 bvk_cgto true
 symmetry false
 rsdf_print_level 1
 
 thresh 14
 mem_total 500000
 threads 32
 
 MAX_SCF_CYCLES 500
 madelung = false
 omega 0.5
 do_rij_bigmem true
 automate_g true
 print_level 10
 grid_type_xc 1
 
 thresh_1e2c_sp 1e-14
 thresh_2e3c_bra_ket_sep 1e-10
 thresh_g 1e-10
 $end
 
 $rem_autosad
 incfock 1000
 scf_algorithm gdm_ls
 $end
 
 -------------------------------------------------------------
 Running PBC job

 Requested Exchange Correlation Functionals: 
  DFT Exchange:  1.00000 pbe_x
  DFT Correlation:  1.00000 pbe_c
 using 32 threads for computing.
 ---------------------------------------------------------------
      Coordinates of Atoms in Central Unit Cell (Angstroms)
    I     Atom         X            Y            Z
 ---------------------------------------------------------------
    1       C      1.493043     1.493043     5.528486
    2      Mg      0.000000     0.000000     1.000000
    3      Mg      8.958237     5.972158     1.000000
    4      Mg      2.986079     5.972158     1.000000
    5      Mg      2.986079     8.958237     1.000000
    6      Mg      5.972158     0.000000     1.000000
    7      Mg      5.972158     2.986079     1.000000
    8      Mg      5.972158     5.972158     1.000000
    9      Mg      8.958237     2.986079     1.000000
   10      Mg      5.972158     8.958237     1.000000
   11      Mg      8.958237     0.000000     1.000000
   12      Mg      2.986079     2.986079     1.000000
   13      Mg      8.958237     8.958237     1.000000
   14      Mg      0.000000     8.958237     1.000000
   15      Mg      0.000000     2.986079     1.000000
   16      Mg      0.000000     5.972158     1.000000
   17      Mg      2.986079     0.000000     1.000000
   18      Mg      1.493034     1.493037     3.151119
   19      Mg      7.465198    10.451700     3.111439
   20      Mg      7.465197     7.465197     3.111270
   21      Mg      1.493033     4.481183     3.105636
   22      Mg      7.465197     4.478692     3.111438
   23      Mg      4.481162     1.493037     3.105632
   24      Mg     10.449684     4.480705     3.109590
   25      Mg      1.493040     7.465196     3.111608
   26      Mg     10.449693    10.449697     3.109585
   27      Mg      4.480709    10.449690     3.109589
   28      Mg      4.478695     7.465198     3.111439
   29      Mg      1.493042    10.449208     3.105638
   30      Mg     10.451698     7.465197     3.111441
   31      Mg      4.480701     4.480704     3.109585
   32      Mg      7.465199     1.493039     3.111610
   33      Mg     10.449225     1.493044     3.105628
   34       O     10.451276     1.493039     1.000000
   35       O      4.479118    10.451276     1.000000
   36       O      7.465197     1.493039     1.000000
   37       O      4.479118     4.479118     1.000000
   38       O     10.451276     4.479118     1.000000
   39       O      7.465197     7.465197     1.000000
   40       O      7.465197    10.451276     1.000000
   41       O      7.465197     4.479118     1.000000
   42       O      4.479118     7.465197     1.000000
   43       O      1.493039    10.451276     1.000000
   44       O     10.451276     7.465197     1.000000
   45       O      1.493039     4.479118     1.000000
   46       O      1.493039     7.465197     1.000000
   47       O      1.493039     1.493039     1.000000
   48       O      4.479118     1.493039     1.000000
   49       O     10.451276    10.451276     1.000000
   50       O      8.958024     5.972369     3.159464
   51       O      8.957096     2.985772     3.160075
   52       O      8.957099     0.000309     3.160074
   53       O      2.985775     8.957095     3.160074
   54       O      5.972369     5.972370     3.159461
   55       O      5.973296     2.985772     3.160071
   56       O      5.973298     0.000306     3.160071
   57       O      2.985771     5.973300     3.160074
   58       O      2.995054     2.995062     3.154846
   59       O      2.995060    -0.008987     3.154851
   60       O      0.000306     8.957096     3.160075
   61       O      0.000305     5.973300     3.160076
   62       O     -0.008988     2.995067     3.154843
   63       O     -0.008981    -0.008980     3.154848
   64       O      5.972371     8.958025     3.159463
   65       O      8.958025     8.958026     3.159462
   66       O      1.493050     1.493041     6.669078
 ---------------------------------------------------------------
 --------------------------------------------------
              Lattice Vectors (Angstroms)
              X            Y            Z
 --------------------------------------------------
   X      11.944316     0.000000     0.000000
   Y       0.000000    11.944316     0.000000
   Z       0.000000     0.000000    21.660222
 --------------------------------------------------
 --------------------------------------------------
       Reciprocal Lattice Vectors (Angstroms^-1)
              X            Y            Z
 --------------------------------------------------
   X       0.526040     0.000000     0.000000
   Y       0.000000     0.526040     0.000000
   Z       0.000000     0.000000     0.290079
 --------------------------------------------------

 Single point calculation requested

 Hamiltonian contributions:
 List of terms in Hamiltonian: kpts_nn, kpts_kinetic, kpts_vnuc_df, kpts_xc, kpts_rij_bigmem, kpts_dftd3

 K-Points calculation started.

 Basis set information about using solid harmonic (1) or Cartesian (0):
  c : D(1) D(1) F(1) 
  o : D(1) D(1) F(1) 
  mg : D(1) D(1) D(1) 

 Basis set information about using solid harmonic (1) or Cartesian (0):
  c : D(1) D(1) D(1) F(1) G(1) 
  o : D(1) D(1) D(1) F(1) G(1) 
  mg : D(1) D(1) D(1) D(1) F(1) G(1) 

 There are 2078 basis functions in the central unit cell.
 Print atomic basis of atoms in the central unit cell:
 -------------------------------------------------------------
66 1480 1480 758

  2.82144204878407e+00  2.82144283302041e+00  1.04473237081885e+01
  0.00000000000000e+00  0.00000000000000e+00  1.88972612462577e+00
  1.69286143624996e+01  1.12857429083331e+01  1.88972612462577e+00
  5.64287145416653e+00  1.12857429083331e+01  1.88972612462577e+00
  5.64287145416653e+00  1.69286143624996e+01  1.88972612462577e+00
  1.12857429083331e+01  0.00000000000000e+00  1.88972612462577e+00
  1.12857429083331e+01  5.64287145416653e+00  1.88972612462577e+00
  1.12857429083331e+01  1.12857429083331e+01  1.88972612462577e+00
  1.69286143624996e+01  5.64287145416653e+00  1.88972612462577e+00
  1.12857429083331e+01  1.69286143624996e+01  1.88972612462577e+00
  1.69286143624996e+01  0.00000000000000e+00  1.88972612462577e+00
  5.64287145416653e+00  5.64287145416653e+00  1.88972612462577e+00
  1.69286143624996e+01  1.69286143624996e+01  1.88972612462577e+00
  0.00000000000000e+00  1.69286143624996e+01  1.88972612462577e+00
  0.00000000000000e+00  5.64287145416653e+00  1.88972612462577e+00
  0.00000000000000e+00  1.12857429083331e+01  1.88972612462577e+00
  5.64287145416653e+00  0.00000000000000e+00  1.88972612462577e+00
  2.82142598762379e+00  2.82143180873615e+00  5.95475136225700e+00
  1.41071792886946e+01  1.97508513710652e+01  5.87976684632842e+00
  1.41071777566937e+01  1.41071775881301e+01  5.87944809545154e+00
  2.82142306006008e+00  8.46820909833439e+00  5.86880200793317e+00
  1.41071771168324e+01  8.46350173821253e+00  5.87976626089126e+00
  8.46816966201784e+00  2.82143074425342e+00  5.86879371411418e+00
  1.97470407727280e+01  8.46730510419000e+00  5.87627321421065e+00
  2.82143662300242e+00  1.41071765725913e+01  5.88008698596503e+00
  1.97470570502619e+01  1.97470651088100e+01  5.87626338914658e+00
  8.46731265534662e+00  1.97470530608611e+01  5.87627081123491e+00
  8.46350781954017e+00  1.41071793644727e+01  5.87976699240425e+00
  2.82144135808917e+00  1.97461421189496e+01  5.86880597541317e+00
  1.97508468438484e+01  1.41071779214778e+01  5.87977071837725e+00
  8.46729834331684e+00  8.46730357955896e+00  5.87626479075645e+00
  1.41071808450731e+01  2.82143476861417e+00  5.88009160048725e+00
  1.97461734105465e+01  2.82144462901612e+00  5.86878638707908e+00
  1.97500491658847e+01  2.82143480338514e+00  1.88972612462577e+00
  8.46430625755166e+00  1.97500491658847e+01  1.88972612462577e+00
  1.41071777117182e+01  2.82143480338514e+00  1.88972612462577e+00
  8.46430625755166e+00  8.46430625755166e+00  1.88972612462577e+00
  1.97500491658847e+01  8.46430625755166e+00  1.88972612462577e+00
  1.41071777117182e+01  1.41071777117182e+01  1.88972612462577e+00
  1.41071777117182e+01  1.97500491658847e+01  1.88972612462577e+00
  1.41071777117182e+01  8.46430625755166e+00  1.88972612462577e+00
  8.46430625755166e+00  1.41071777117182e+01  1.88972612462577e+00
  2.82143480338514e+00  1.97500491658847e+01  1.88972612462577e+00
  1.97500491658847e+01  1.41071777117182e+01  1.88972612462577e+00
  2.82143480338514e+00  8.46430625755166e+00  1.88972612462577e+00
  2.82143480338514e+00  1.41071777117182e+01  1.88972612462577e+00
  2.82143480338514e+00  2.82143480338514e+00  1.88972612462577e+00
  8.46430625755166e+00  2.82143480338514e+00  1.88972612462577e+00
  1.97500491658847e+01  1.97500491658847e+01  1.88972612462577e+00
  1.69282117693878e+01  1.12861409349216e+01  5.97052243767002e+00
  1.69264585871251e+01  5.64229083127940e+00  5.97167673473235e+00
  1.69264630489575e+01  5.83138868496294e-04  5.97167408609222e+00
  5.64229653277209e+00  1.69264555042259e+01  5.97167396514974e+00
  1.12861418465255e+01  1.12861428652769e+01  5.97051612844141e+00
  1.12878935937302e+01  5.64229083373604e+00  5.97166947969581e+00
  1.12878965921587e+01  5.78801380122440e-04  5.97166929582546e+00
  5.64228981044934e+00  1.12879007185646e+01  5.97167448217881e+00
  5.65983264658954e+00  5.65984760585052e+00  5.96179482373494e+00
  5.65984296921850e+00 -1.69824418263683e-02  5.96180389082986e+00
  5.78316476398861e-04  1.69264582647378e+01  5.97167546653715e+00
  5.75560688791319e-04  1.12879003668866e+01  5.97167797269194e+00
 -1.69846841753877e-02  5.65985584807999e+00  5.96178908331389e+00
 -1.69707107845318e-02 -1.69695996255705e-02  5.96179920071859e+00
  1.12861447776797e+01  1.69282142443622e+01  5.97051900762813e+00
  1.69282139533443e+01  1.69282163491391e+01  5.97051722788406e+00
  2.82145479895521e+00  2.82143809396524e+00  1.26027309991671e+01

  1.35753496820000e+04
  2.03523336800000e+03
  4.63225623590000e+02
  1.31200195980000e+02
  4.28530158910000e+01
  1.55841857660000e+01
  6.20671385080000e+00
  2.57648965270000e+00
  5.76963394190000e-01
  2.29728313580000e-01
  9.51644400280000e-02
  3.46972322440000e+01
  7.95826228260000e+00
  2.37808268830000e+00
  8.14332081830000e-01
  2.88875472530000e-01
  1.00568236710000e-01
  1.09700000000000e+00
  3.18000000000000e-01
  7.61000000000000e-01
  3.14383495550000e+04
  4.71551533540000e+03
  1.07316292470000e+03
  3.03572387680000e+02
  9.86262510420000e+01
  3.49438084170000e+01
  1.28597851990000e+01
  6.48769130040000e+01
  1.97255207770000e+01
  2.89518043390000e+00
  1.19604547100000e+00
  5.43294511560000e-01
  1.00991040920000e-01
  3.68657280850000e-02
  1.79871896120000e+02
  4.21200693760000e+01
  1.31205030320000e+01
  4.62575036090000e+00
  1.66952110160000e+00
  5.85510121050000e-01
  1.89147961950000e-01
  5.37687551870000e-02
  3.44400000000000e+00
  2.90000000000000e-01
  7.00000000000000e-02
  3.14383495550000e+04
  4.71551533540000e+03
  1.07316292470000e+03
  3.03572387680000e+02
  9.86262510420000e+01
  3.49438084170000e+01
  1.28597851990000e+01
  6.48769130040000e+01
  1.97255207770000e+01
  2.89518043390000e+00
  1.19604547100000e+00
  5.43294511560000e-01
  1.00991040920000e-01
  3.68657280850000e-02
  1.79871896120000e+02
  4.21200693760000e+01
  1.31205030320000e+01
  4.62575036090000e+00
  1.66952110160000e+00
  5.85510121050000e-01
  1.89147961950000e-01
  5.37687551870000e-02
  3.44400000000000e+00
  2.90000000000000e-01
  7.00000000000000e-02
  3.14383495550000e+04
  4.71551533540000e+03
  1.07316292470000e+03
  3.03572387680000e+02
  9.86262510420000e+01
  3.49438084170000e+01
  1.28597851990000e+01
  6.48769130040000e+01
  1.97255207770000e+01
  2.89518043390000e+00
  1.19604547100000e+00
  5.43294511560000e-01
  1.00991040920000e-01
  3.68657280850000e-02
  1.79871896120000e+02
  4.21200693760000e+01
  1.31205030320000e+01
  4.62575036090000e+00
  1.66952110160000e+00
  5.85510121050000e-01
  1.89147961950000e-01
  5.37687551870000e-02
  3.44400000000000e+00
  2.90000000000000e-01
  7.00000000000000e-02
  3.14383495550000e+04
  4.71551533540000e+03
  1.07316292470000e+03
  3.03572387680000e+02
  9.86262510420000e+01
  3.49438084170000e+01
  1.28597851990000e+01
  6.48769130040000e+01
  1.97255207770000e+01
  2.89518043390000e+00
  1.19604547100000e+00
  5.43294511560000e-01
  1.00991040920000e-01
  3.68657280850000e-02
  1.79871896120000e+02
  4.21200693760000e+01
  1.31205030320000e+01
  4.62575036090000e+00
  1.66952110160000e+00
  5.85510121050000e-01
  1.89147961950000e-01
  5.37687551870000e-02
  3.44400000000000e+00
  2.90000000000000e-01
  7.00000000000000e-02
  3.14383495550000e+04
  4.71551533540000e+03
  1.07316292470000e+03
  3.03572387680000e+02
  9.86262510420000e+01
  3.49438084170000e+01
  1.28597851990000e+01
  6.48769130040000e+01
  1.97255207770000e+01
  2.89518043390000e+00
  1.19604547100000e+00
  5.43294511560000e-01
  1.00991040920000e-01
  3.68657280850000e-02
  1.79871896120000e+02
  4.21200693760000e+01
  1.31205030320000e+01
  4.62575036090000e+00
  1.66952110160000e+00
  5.85510121050000e-01
  1.89147961950000e-01
  5.37687551870000e-02
  3.44400000000000e+00
  2.90000000000000e-01
  7.00000000000000e-02
  3.14383495550000e+04
  4.71551533540000e+03
  1.07316292470000e+03
  3.03572387680000e+02
  9.86262510420000e+01
  3.49438084170000e+01
  1.28597851990000e+01
  6.48769130040000e+01
  1.97255207770000e+01
  2.89518043390000e+00
  1.19604547100000e+00
  5.43294511560000e-01
  1.00991040920000e-01
  3.68657280850000e-02
  1.79871896120000e+02
  4.21200693760000e+01
  1.31205030320000e+01
  4.62575036090000e+00
  1.66952110160000e+00
  5.85510121050000e-01
  1.89147961950000e-01
  5.37687551870000e-02
  3.44400000000000e+00
  2.90000000000000e-01
  7.00000000000000e-02
  3.14383495550000e+04
  4.71551533540000e+03
  1.07316292470000e+03
  3.03572387680000e+02
  9.86262510420000e+01
  3.49438084170000e+01
  1.28597851990000e+01
  6.48769130040000e+01
  1.97255207770000e+01
  2.89518043390000e+00
  1.19604547100000e+00
  5.43294511560000e-01
  1.00991040920000e-01
  3.68657280850000e-02
  1.79871896120000e+02
  4.21200693760000e+01
  1.31205030320000e+01
  4.62575036090000e+00
  1.66952110160000e+00
  5.85510121050000e-01
  1.89147961950000e-01
  5.37687551870000e-02
  3.44400000000000e+00
  2.90000000000000e-01
  7.00000000000000e-02
  3.14383495550000e+04
  4.71551533540000e+03
  1.07316292470000e+03
  3.03572387680000e+02
  9.86262510420000e+01
  3.49438084170000e+01
  1.28597851990000e+01
  6.48769130040000e+01
  1.97255207770000e+01
  2.89518043390000e+00
  1.19604547100000e+00
  5.43294511560000e-01
  1.00991040920000e-01
  3.68657280850000e-02
  1.79871896120000e+02
  4.21200693760000e+01
  1.31205030320000e+01
  4.62575036090000e+00
  1.66952110160000e+00
  5.85510121050000e-01
  1.89147961950000e-01
  5.37687551870000e-02
  3.44400000000000e+00
  2.90000000000000e-01
  7.00000000000000e-02
  3.14383495550000e+04
  4.71551533540000e+03
  1.07316292470000e+03
  3.03572387680000e+02
  9.86262510420000e+01
  3.49438084170000e+01
  1.28597851990000e+01
  6.48769130040000e+01
  1.97255207770000e+01
  2.89518043390000e+00
  1.19604547100000e+00
  5.43294511560000e-01
  1.00991040920000e-01
  3.68657280850000e-02
  1.79871896120000e+02
  4.21200693760000e+01
  1.31205030320000e+01
  4.62575036090000e+00
  1.66952110160000e+00
  5.85510121050000e-01
  1.89147961950000e-01
  5.37687551870000e-02
  3.44400000000000e+00
  2.90000000000000e-01
  7.00000000000000e-02
  3.14383495550000e+04
  4.71551533540000e+03
  1.07316292470000e+03
  3.03572387680000e+02
  9.86262510420000e+01
  3.49438084170000e+01
  1.28597851990000e+01
  6.48769130040000e+01
  1.97255207770000e+01
  2.89518043390000e+00
  1.19604547100000e+00
  5.43294511560000e-01
  1.00991040920000e-01
  3.68657280850000e-02
  1.79871896120000e+02
  4.21200693760000e+01
  1.31205030320000e+01
  4.62575036090000e+00
  1.66952110160000e+00
  5.85510121050000e-01
  1.89147961950000e-01
  5.37687551870000e-02
  3.44400000000000e+00
  2.90000000000000e-01
  7.00000000000000e-02
  3.14383495550000e+04
  4.71551533540000e+03
  1.07316292470000e+03
  3.03572387680000e+02
  9.86262510420000e+01
  3.49438084170000e+01
  1.28597851990000e+01
  6.48769130040000e+01
  1.97255207770000e+01
  2.89518043390000e+00
  1.19604547100000e+00
  5.43294511560000e-01
  1.00991040920000e-01
  3.68657280850000e-02
  1.79871896120000e+02
  4.21200693760000e+01
  1.31205030320000e+01
  4.62575036090000e+00
  1.66952110160000e+00
  5.85510121050000e-01
  1.89147961950000e-01
  5.37687551870000e-02
  3.44400000000000e+00
  2.90000000000000e-01
  7.00000000000000e-02
  3.14383495550000e+04
  4.71551533540000e+03
  1.07316292470000e+03
  3.03572387680000e+02
  9.86262510420000e+01
  3.49438084170000e+01
  1.28597851990000e+01
  6.48769130040000e+01
  1.97255207770000e+01
  2.89518043390000e+00
  1.19604547100000e+00
  5.43294511560000e-01
  1.00991040920000e-01
  3.68657280850000e-02
  1.79871896120000e+02
  4.21200693760000e+01
  1.31205030320000e+01
  4.62575036090000e+00
  1.66952110160000e+00
  5.85510121050000e-01
  1.89147961950000e-01
  5.37687551870000e-02
  3.44400000000000e+00
  2.90000000000000e-01
  7.00000000000000e-02
  3.14383495550000e+04
  4.71551533540000e+03
  1.07316292470000e+03
  3.03572387680000e+02
  9.86262510420000e+01
  3.49438084170000e+01
  1.28597851990000e+01
  6.48769130040000e+01
  1.97255207770000e+01
  2.89518043390000e+00
  1.19604547100000e+00
  5.43294511560000e-01
  1.00991040920000e-01
  3.68657280850000e-02
  1.79871896120000e+02
  4.21200693760000e+01
  1.31205030320000e+01
  4.62575036090000e+00
  1.66952110160000e+00
  5.85510121050000e-01
  1.89147961950000e-01
  5.37687551870000e-02
  3.44400000000000e+00
  2.90000000000000e-01
  7.00000000000000e-02
  3.14383495550000e+04
  4.71551533540000e+03
  1.07316292470000e+03
  3.03572387680000e+02
  9.86262510420000e+01
  3.49438084170000e+01
  1.28597851990000e+01
  6.48769130040000e+01
  1.97255207770000e+01
  2.89518043390000e+00
  1.19604547100000e+00
  5.43294511560000e-01
  1.00991040920000e-01
  3.68657280850000e-02
  1.79871896120000e+02
  4.21200693760000e+01
  1.31205030320000e+01
  4.62575036090000e+00
  1.66952110160000e+00
  5.85510121050000e-01
  1.89147961950000e-01
  5.37687551870000e-02
  3.44400000000000e+00
  2.90000000000000e-01
  7.00000000000000e-02
  3.14383495550000e+04
  4.71551533540000e+03
  1.07316292470000e+03
  3.03572387680000e+02
  9.86262510420000e+01
  3.49438084170000e+01
  1.28597851990000e+01
  6.48769130040000e+01
  1.97255207770000e+01
  2.89518043390000e+00
  1.19604547100000e+00
  5.43294511560000e-01
  1.00991040920000e-01
  3.68657280850000e-02
  1.79871896120000e+02
  4.21200693760000e+01
  1.31205030320000e+01
  4.62575036090000e+00
  1.66952110160000e+00
  5.85510121050000e-01
  1.89147961950000e-01
  5.37687551870000e-02
  3.44400000000000e+00
  2.90000000000000e-01
  7.00000000000000e-02
  3.14383495550000e+04
  4.71551533540000e+03
  1.07316292470000e+03
  3.03572387680000e+02
  9.86262510420000e+01
  3.49438084170000e+01
  1.28597851990000e+01
  6.48769130040000e+01
  1.97255207770000e+01
  2.89518043390000e+00
  1.19604547100000e+00
  5.43294511560000e-01
  1.00991040920000e-01
  3.68657280850000e-02
  1.79871896120000e+02
  4.21200693760000e+01
  1.31205030320000e+01
  4.62575036090000e+00
  1.66952110160000e+00
  5.85510121050000e-01
  1.89147961950000e-01
  5.37687551870000e-02
  3.44400000000000e+00
  2.90000000000000e-01
  7.00000000000000e-02
  3.14383495550000e+04
  4.71551533540000e+03
  1.07316292470000e+03
  3.03572387680000e+02
  9.86262510420000e+01
  3.49438084170000e+01
  1.28597851990000e+01
  6.48769130040000e+01
  1.97255207770000e+01
  2.89518043390000e+00
  1.19604547100000e+00
  5.43294511560000e-01
  1.00991040920000e-01
  3.68657280850000e-02
  1.79871896120000e+02
  4.21200693760000e+01
  1.31205030320000e+01
  4.62575036090000e+00
  1.66952110160000e+00
  5.85510121050000e-01
  1.89147961950000e-01
  5.37687551870000e-02
  3.44400000000000e+00
  2.90000000000000e-01
  7.00000000000000e-02
  3.14383495550000e+04
  4.71551533540000e+03
  1.07316292470000e+03
  3.03572387680000e+02
  9.86262510420000e+01
  3.49438084170000e+01
  1.28597851990000e+01
  6.48769130040000e+01
  1.97255207770000e+01
  2.89518043390000e+00
  1.19604547100000e+00
  5.43294511560000e-01
  1.00991040920000e-01
  3.68657280850000e-02
  1.79871896120000e+02
  4.21200693760000e+01
  1.31205030320000e+01
  4.62575036090000e+00
  1.66952110160000e+00
  5.85510121050000e-01
  1.89147961950000e-01
  5.37687551870000e-02
  3.44400000000000e+00
  2.90000000000000e-01
  7.00000000000000e-02
  3.14383495550000e+04
  4.71551533540000e+03
  1.07316292470000e+03
  3.03572387680000e+02
  9.86262510420000e+01
  3.49438084170000e+01
  1.28597851990000e+01
  6.48769130040000e+01
  1.97255207770000e+01
  2.89518043390000e+00
  1.19604547100000e+00
  5.43294511560000e-01
  1.00991040920000e-01
  3.68657280850000e-02
  1.79871896120000e+02
  4.21200693760000e+01
  1.31205030320000e+01
  4.62575036090000e+00
  1.66952110160000e+00
  5.85510121050000e-01
  1.89147961950000e-01
  5.37687551870000e-02
  3.44400000000000e+00
  2.90000000000000e-01
  7.00000000000000e-02
  3.14383495550000e+04
  4.71551533540000e+03
  1.07316292470000e+03
  3.03572387680000e+02
  9.86262510420000e+01
  3.49438084170000e+01
  1.28597851990000e+01
  6.48769130040000e+01
  1.97255207770000e+01
  2.89518043390000e+00
  1.19604547100000e+00
  5.43294511560000e-01
  1.00991040920000e-01
  3.68657280850000e-02
  1.79871896120000e+02
  4.21200693760000e+01
  1.31205030320000e+01
  4.62575036090000e+00
  1.66952110160000e+00
  5.85510121050000e-01
  1.89147961950000e-01
  5.37687551870000e-02
  3.44400000000000e+00
  2.90000000000000e-01
  7.00000000000000e-02
  3.14383495550000e+04
  4.71551533540000e+03
  1.07316292470000e+03
  3.03572387680000e+02
  9.86262510420000e+01
  3.49438084170000e+01
  1.28597851990000e+01
  6.48769130040000e+01
  1.97255207770000e+01
  2.89518043390000e+00
  1.19604547100000e+00
  5.43294511560000e-01
  1.00991040920000e-01
  3.68657280850000e-02
  1.79871896120000e+02
  4.21200693760000e+01
  1.31205030320000e+01
  4.62575036090000e+00
  1.66952110160000e+00
  5.85510121050000e-01
  1.89147961950000e-01
  5.37687551870000e-02
  3.44400000000000e+00
  2.90000000000000e-01
  7.00000000000000e-02
  3.14383495550000e+04
  4.71551533540000e+03
  1.07316292470000e+03
  3.03572387680000e+02
  9.86262510420000e+01
  3.49438084170000e+01
  1.28597851990000e+01
  6.48769130040000e+01
  1.97255207770000e+01
  2.89518043390000e+00
  1.19604547100000e+00
  5.43294511560000e-01
  1.00991040920000e-01
  3.68657280850000e-02
  1.79871896120000e+02
  4.21200693760000e+01
  1.31205030320000e+01
  4.62575036090000e+00
  1.66952110160000e+00
  5.85510121050000e-01
  1.89147961950000e-01
  5.37687551870000e-02
  3.44400000000000e+00
  2.90000000000000e-01
  7.00000000000000e-02
  3.14383495550000e+04
  4.71551533540000e+03
  1.07316292470000e+03
  3.03572387680000e+02
  9.86262510420000e+01
  3.49438084170000e+01
  1.28597851990000e+01
  6.48769130040000e+01
  1.97255207770000e+01
  2.89518043390000e+00
  1.19604547100000e+00
  5.43294511560000e-01
  1.00991040920000e-01
  3.68657280850000e-02
  1.79871896120000e+02
  4.21200693760000e+01
  1.31205030320000e+01
  4.62575036090000e+00
  1.66952110160000e+00
  5.85510121050000e-01
  1.89147961950000e-01
  5.37687551870000e-02
  3.44400000000000e+00
  2.90000000000000e-01
  7.00000000000000e-02
  3.14383495550000e+04
  4.71551533540000e+03
  1.07316292470000e+03
  3.03572387680000e+02
  9.86262510420000e+01
  3.49438084170000e+01
  1.28597851990000e+01
  6.48769130040000e+01
  1.97255207770000e+01
  2.89518043390000e+00
  1.19604547100000e+00
  5.43294511560000e-01
  1.00991040920000e-01
  3.68657280850000e-02
  1.79871896120000e+02
  4.21200693760000e+01
  1.31205030320000e+01
  4.62575036090000e+00
  1.66952110160000e+00
  5.85510121050000e-01
  1.89147961950000e-01
  5.37687551870000e-02
  3.44400000000000e+00
  2.90000000000000e-01
  7.00000000000000e-02
  3.14383495550000e+04
  4.71551533540000e+03
  1.07316292470000e+03
  3.03572387680000e+02
  9.86262510420000e+01
  3.49438084170000e+01
  1.28597851990000e+01
  6.48769130040000e+01
  1.97255207770000e+01
  2.89518043390000e+00
  1.19604547100000e+00
  5.43294511560000e-01
  1.00991040920000e-01
  3.68657280850000e-02
  1.79871896120000e+02
  4.21200693760000e+01
  1.31205030320000e+01
  4.62575036090000e+00
  1.66952110160000e+00
  5.85510121050000e-01
  1.89147961950000e-01
  5.37687551870000e-02
  3.44400000000000e+00
  2.90000000000000e-01
  7.00000000000000e-02
  3.14383495550000e+04
  4.71551533540000e+03
  1.07316292470000e+03
  3.03572387680000e+02
  9.86262510420000e+01
  3.49438084170000e+01
  1.28597851990000e+01
  6.48769130040000e+01
  1.97255207770000e+01
  2.89518043390000e+00
  1.19604547100000e+00
  5.43294511560000e-01
  1.00991040920000e-01
  3.68657280850000e-02
  1.79871896120000e+02
  4.21200693760000e+01
  1.31205030320000e+01
  4.62575036090000e+00
  1.66952110160000e+00
  5.85510121050000e-01
  1.89147961950000e-01
  5.37687551870000e-02
  3.44400000000000e+00
  2.90000000000000e-01
  7.00000000000000e-02
  3.14383495550000e+04
  4.71551533540000e+03
  1.07316292470000e+03
  3.03572387680000e+02
  9.86262510420000e+01
  3.49438084170000e+01
  1.28597851990000e+01
  6.48769130040000e+01
  1.97255207770000e+01
  2.89518043390000e+00
  1.19604547100000e+00
  5.43294511560000e-01
  1.00991040920000e-01
  3.68657280850000e-02
  1.79871896120000e+02
  4.21200693760000e+01
  1.31205030320000e+01
  4.62575036090000e+00
  1.66952110160000e+00
  5.85510121050000e-01
  1.89147961950000e-01
  5.37687551870000e-02
  3.44400000000000e+00
  2.90000000000000e-01
  7.00000000000000e-02
  3.14383495550000e+04
  4.71551533540000e+03
  1.07316292470000e+03
  3.03572387680000e+02
  9.86262510420000e+01
  3.49438084170000e+01
  1.28597851990000e+01
  6.48769130040000e+01
  1.97255207770000e+01
  2.89518043390000e+00
  1.19604547100000e+00
  5.43294511560000e-01
  1.00991040920000e-01
  3.68657280850000e-02
  1.79871896120000e+02
  4.21200693760000e+01
  1.31205030320000e+01
  4.62575036090000e+00
  1.66952110160000e+00
  5.85510121050000e-01
  1.89147961950000e-01
  5.37687551870000e-02
  3.44400000000000e+00
  2.90000000000000e-01
  7.00000000000000e-02
  3.14383495550000e+04
  4.71551533540000e+03
  1.07316292470000e+03
  3.03572387680000e+02
  9.86262510420000e+01
  3.49438084170000e+01
  1.28597851990000e+01
  6.48769130040000e+01
  1.97255207770000e+01
  2.89518043390000e+00
  1.19604547100000e+00
  5.43294511560000e-01
  1.00991040920000e-01
  3.68657280850000e-02
  1.79871896120000e+02
  4.21200693760000e+01
  1.31205030320000e+01
  4.62575036090000e+00
  1.66952110160000e+00
  5.85510121050000e-01
  1.89147961950000e-01
  5.37687551870000e-02
  3.44400000000000e+00
  2.90000000000000e-01
  7.00000000000000e-02
  3.14383495550000e+04
  4.71551533540000e+03
  1.07316292470000e+03
  3.03572387680000e+02
  9.86262510420000e+01
  3.49438084170000e+01
  1.28597851990000e+01
  6.48769130040000e+01
  1.97255207770000e+01
  2.89518043390000e+00
  1.19604547100000e+00
  5.43294511560000e-01
  1.00991040920000e-01
  3.68657280850000e-02
  1.79871896120000e+02
  4.21200693760000e+01
  1.31205030320000e+01
  4.62575036090000e+00
  1.66952110160000e+00
  5.85510121050000e-01
  1.89147961950000e-01
  5.37687551870000e-02
  3.44400000000000e+00
  2.90000000000000e-01
  7.00000000000000e-02
  3.14383495550000e+04
  4.71551533540000e+03
  1.07316292470000e+03
  3.03572387680000e+02
  9.86262510420000e+01
  3.49438084170000e+01
  1.28597851990000e+01
  6.48769130040000e+01
  1.97255207770000e+01
  2.89518043390000e+00
  1.19604547100000e+00
  5.43294511560000e-01
  1.00991040920000e-01
  3.68657280850000e-02
  1.79871896120000e+02
  4.21200693760000e+01
  1.31205030320000e+01
  4.62575036090000e+00
  1.66952110160000e+00
  5.85510121050000e-01
  1.89147961950000e-01
  5.37687551870000e-02
  3.44400000000000e+00
  2.90000000000000e-01
  7.00000000000000e-02
  3.14383495550000e+04
  4.71551533540000e+03
  1.07316292470000e+03
  3.03572387680000e+02
  9.86262510420000e+01
  3.49438084170000e+01
  1.28597851990000e+01
  6.48769130040000e+01
  1.97255207770000e+01
  2.89518043390000e+00
  1.19604547100000e+00
  5.43294511560000e-01
  1.00991040920000e-01
  3.68657280850000e-02
  1.79871896120000e+02
  4.21200693760000e+01
  1.31205030320000e+01
  4.62575036090000e+00
  1.66952110160000e+00
  5.85510121050000e-01
  1.89147961950000e-01
  5.37687551870000e-02
  3.44400000000000e+00
  2.90000000000000e-01
  7.00000000000000e-02
  2.70323826310000e+04
  4.05238713920000e+03
  9.22327227100000e+02
  2.61240709890000e+02
  8.53546413510000e+01
  3.10350352450000e+01
  1.22608607280000e+01
  4.99870760050000e+00
  1.17031081580000e+00
  4.64747409940000e-01
  1.85045363570000e-01
  6.32749548010000e+01
  1.46270493790000e+01
  4.45012234560000e+00
  1.52757996470000e+00
  5.29351179430000e-01
  1.74784212700000e-01
  2.31400000000000e+00
  6.45000000000000e-01
  1.42800000000000e+00
  2.70323826310000e+04
  4.05238713920000e+03
  9.22327227100000e+02
  2.61240709890000e+02
  8.53546413510000e+01
  3.10350352450000e+01
  1.22608607280000e+01
  4.99870760050000e+00
  1.17031081580000e+00
  4.64747409940000e-01
  1.85045363570000e-01
  6.32749548010000e+01
  1.46270493790000e+01
  4.45012234560000e+00
  1.52757996470000e+00
  5.29351179430000e-01
  1.74784212700000e-01
  2.31400000000000e+00
  6.45000000000000e-01
  1.42800000000000e+00
  2.70323826310000e+04
  4.05238713920000e+03
  9.22327227100000e+02
  2.61240709890000e+02
  8.53546413510000e+01
  3.10350352450000e+01
  1.22608607280000e+01
  4.99870760050000e+00
  1.17031081580000e+00
  4.64747409940000e-01
  1.85045363570000e-01
  6.32749548010000e+01
  1.46270493790000e+01
  4.45012234560000e+00
  1.52757996470000e+00
  5.29351179430000e-01
  1.74784212700000e-01
  2.31400000000000e+00
  6.45000000000000e-01
  1.42800000000000e+00
  2.70323826310000e+04
  4.05238713920000e+03
  9.22327227100000e+02
  2.61240709890000e+02
  8.53546413510000e+01
  3.10350352450000e+01
  1.22608607280000e+01
  4.99870760050000e+00
  1.17031081580000e+00
  4.64747409940000e-01
  1.85045363570000e-01
  6.32749548010000e+01
  1.46270493790000e+01
  4.45012234560000e+00
  1.52757996470000e+00
  5.29351179430000e-01
  1.74784212700000e-01
  2.31400000000000e+00
  6.45000000000000e-01
  1.42800000000000e+00
  2.70323826310000e+04
  4.05238713920000e+03
  9.22327227100000e+02
  2.61240709890000e+02
  8.53546413510000e+01
  3.10350352450000e+01
  1.22608607280000e+01
  4.99870760050000e+00
  1.17031081580000e+00
  4.64747409940000e-01
  1.85045363570000e-01
  6.32749548010000e+01
  1.46270493790000e+01
  4.45012234560000e+00
  1.52757996470000e+00
  5.29351179430000e-01
  1.74784212700000e-01
  2.31400000000000e+00
  6.45000000000000e-01
  1.42800000000000e+00
  2.70323826310000e+04
  4.05238713920000e+03
  9.22327227100000e+02
  2.61240709890000e+02
  8.53546413510000e+01
  3.10350352450000e+01
  1.22608607280000e+01
  4.99870760050000e+00
  1.17031081580000e+00
  4.64747409940000e-01
  1.85045363570000e-01
  6.32749548010000e+01
  1.46270493790000e+01
  4.45012234560000e+00
  1.52757996470000e+00
  5.29351179430000e-01
  1.74784212700000e-01
  2.31400000000000e+00
  6.45000000000000e-01
  1.42800000000000e+00
  2.70323826310000e+04
  4.05238713920000e+03
  9.22327227100000e+02
  2.61240709890000e+02
  8.53546413510000e+01
  3.10350352450000e+01
  1.22608607280000e+01
  4.99870760050000e+00
  1.17031081580000e+00
  4.64747409940000e-01
  1.85045363570000e-01
  6.32749548010000e+01
  1.46270493790000e+01
  4.45012234560000e+00
  1.52757996470000e+00
  5.29351179430000e-01
  1.74784212700000e-01
  2.31400000000000e+00
  6.45000000000000e-01
  1.42800000000000e+00
  2.70323826310000e+04
  4.05238713920000e+03
  9.22327227100000e+02
  2.61240709890000e+02
  8.53546413510000e+01
  3.10350352450000e+01
  1.22608607280000e+01
  4.99870760050000e+00
  1.17031081580000e+00
  4.64747409940000e-01
  1.85045363570000e-01
  6.32749548010000e+01
  1.46270493790000e+01
  4.45012234560000e+00
  1.52757996470000e+00
  5.29351179430000e-01
  1.74784212700000e-01
  2.31400000000000e+00
  6.45000000000000e-01
  1.42800000000000e+00
  2.70323826310000e+04
  4.05238713920000e+03
  9.22327227100000e+02
  2.61240709890000e+02
  8.53546413510000e+01
  3.10350352450000e+01
  1.22608607280000e+01
  4.99870760050000e+00
  1.17031081580000e+00
  4.64747409940000e-01
  1.85045363570000e-01
  6.32749548010000e+01
  1.46270493790000e+01
  4.45012234560000e+00
  1.52757996470000e+00
  5.29351179430000e-01
  1.74784212700000e-01
  2.31400000000000e+00
  6.45000000000000e-01
  1.42800000000000e+00
  2.70323826310000e+04
  4.05238713920000e+03
  9.22327227100000e+02
  2.61240709890000e+02
  8.53546413510000e+01
  3.10350352450000e+01
  1.22608607280000e+01
  4.99870760050000e+00
  1.17031081580000e+00
  4.64747409940000e-01
  1.85045363570000e-01
  6.32749548010000e+01
  1.46270493790000e+01
  4.45012234560000e+00
  1.52757996470000e+00
  5.29351179430000e-01
  1.74784212700000e-01
  2.31400000000000e+00
  6.45000000000000e-01
  1.42800000000000e+00
  2.70323826310000e+04
  4.05238713920000e+03
  9.22327227100000e+02
  2.61240709890000e+02
  8.53546413510000e+01
  3.10350352450000e+01
  1.22608607280000e+01
  4.99870760050000e+00
  1.17031081580000e+00
  4.64747409940000e-01
  1.85045363570000e-01
  6.32749548010000e+01
  1.46270493790000e+01
  4.45012234560000e+00
  1.52757996470000e+00
  5.29351179430000e-01
  1.74784212700000e-01
  2.31400000000000e+00
  6.45000000000000e-01
  1.42800000000000e+00
  2.70323826310000e+04
  4.05238713920000e+03
  9.22327227100000e+02
  2.61240709890000e+02
  8.53546413510000e+01
  3.10350352450000e+01
  1.22608607280000e+01
  4.99870760050000e+00
  1.17031081580000e+00
  4.64747409940000e-01
  1.85045363570000e-01
  6.32749548010000e+01
  1.46270493790000e+01
  4.45012234560000e+00
  1.52757996470000e+00
  5.29351179430000e-01
  1.74784212700000e-01
  2.31400000000000e+00
  6.45000000000000e-01
  1.42800000000000e+00
  2.70323826310000e+04
  4.05238713920000e+03
  9.22327227100000e+02
  2.61240709890000e+02
  8.53546413510000e+01
  3.10350352450000e+01
  1.22608607280000e+01
  4.99870760050000e+00
  1.17031081580000e+00
  4.64747409940000e-01
  1.85045363570000e-01
  6.32749548010000e+01
  1.46270493790000e+01
  4.45012234560000e+00
  1.52757996470000e+00
  5.29351179430000e-01
  1.74784212700000e-01
  2.31400000000000e+00
  6.45000000000000e-01
  1.42800000000000e+00
  2.70323826310000e+04
  4.05238713920000e+03
  9.22327227100000e+02
  2.61240709890000e+02
  8.53546413510000e+01
  3.10350352450000e+01
  1.22608607280000e+01
  4.99870760050000e+00
  1.17031081580000e+00
  4.64747409940000e-01
  1.85045363570000e-01
  6.32749548010000e+01
  1.46270493790000e+01
  4.45012234560000e+00
  1.52757996470000e+00
  5.29351179430000e-01
  1.74784212700000e-01
  2.31400000000000e+00
  6.45000000000000e-01
  1.42800000000000e+00
  2.70323826310000e+04
  4.05238713920000e+03
  9.22327227100000e+02
  2.61240709890000e+02
  8.53546413510000e+01
  3.10350352450000e+01
  1.22608607280000e+01
  4.99870760050000e+00
  1.17031081580000e+00
  4.64747409940000e-01
  1.85045363570000e-01
  6.32749548010000e+01
  1.46270493790000e+01
  4.45012234560000e+00
  1.52757996470000e+00
  5.29351179430000e-01
  1.74784212700000e-01
  2.31400000000000e+00
  6.45000000000000e-01
  1.42800000000000e+00
  2.70323826310000e+04
  4.05238713920000e+03
  9.22327227100000e+02
  2.61240709890000e+02
  8.53546413510000e+01
  3.10350352450000e+01
  1.22608607280000e+01
  4.99870760050000e+00
  1.17031081580000e+00
  4.64747409940000e-01
  1.85045363570000e-01
  6.32749548010000e+01
  1.46270493790000e+01
  4.45012234560000e+00
  1.52757996470000e+00
  5.29351179430000e-01
  1.74784212700000e-01
  2.31400000000000e+00
  6.45000000000000e-01
  1.42800000000000e+00
  2.70323826310000e+04
  4.05238713920000e+03
  9.22327227100000e+02
  2.61240709890000e+02
  8.53546413510000e+01
  3.10350352450000e+01
  1.22608607280000e+01
  4.99870760050000e+00
  1.17031081580000e+00
  4.64747409940000e-01
  1.85045363570000e-01
  6.32749548010000e+01
  1.46270493790000e+01
  4.45012234560000e+00
  1.52757996470000e+00
  5.29351179430000e-01
  1.74784212700000e-01
  2.31400000000000e+00
  6.45000000000000e-01
  1.42800000000000e+00
  2.70323826310000e+04
  4.05238713920000e+03
  9.22327227100000e+02
  2.61240709890000e+02
  8.53546413510000e+01
  3.10350352450000e+01
  1.22608607280000e+01
  4.99870760050000e+00
  1.17031081580000e+00
  4.64747409940000e-01
  1.85045363570000e-01
  6.32749548010000e+01
  1.46270493790000e+01
  4.45012234560000e+00
  1.52757996470000e+00
  5.29351179430000e-01
  1.74784212700000e-01
  2.31400000000000e+00
  6.45000000000000e-01
  1.42800000000000e+00
  2.70323826310000e+04
  4.05238713920000e+03
  9.22327227100000e+02
  2.61240709890000e+02
  8.53546413510000e+01
  3.10350352450000e+01
  1.22608607280000e+01
  4.99870760050000e+00
  1.17031081580000e+00
  4.64747409940000e-01
  1.85045363570000e-01
  6.32749548010000e+01
  1.46270493790000e+01
  4.45012234560000e+00
  1.52757996470000e+00
  5.29351179430000e-01
  1.74784212700000e-01
  2.31400000000000e+00
  6.45000000000000e-01
  1.42800000000000e+00
  2.70323826310000e+04
  4.05238713920000e+03
  9.22327227100000e+02
  2.61240709890000e+02
  8.53546413510000e+01
  3.10350352450000e+01
  1.22608607280000e+01
  4.99870760050000e+00
  1.17031081580000e+00
  4.64747409940000e-01
  1.85045363570000e-01
  6.32749548010000e+01
  1.46270493790000e+01
  4.45012234560000e+00
  1.52757996470000e+00
  5.29351179430000e-01
  1.74784212700000e-01
  2.31400000000000e+00
  6.45000000000000e-01
  1.42800000000000e+00
  2.70323826310000e+04
  4.05238713920000e+03
  9.22327227100000e+02
  2.61240709890000e+02
  8.53546413510000e+01
  3.10350352450000e+01
  1.22608607280000e+01
  4.99870760050000e+00
  1.17031081580000e+00
  4.64747409940000e-01
  1.85045363570000e-01
  6.32749548010000e+01
  1.46270493790000e+01
  4.45012234560000e+00
  1.52757996470000e+00
  5.29351179430000e-01
  1.74784212700000e-01
  2.31400000000000e+00
  6.45000000000000e-01
  1.42800000000000e+00
  2.70323826310000e+04
  4.05238713920000e+03
  9.22327227100000e+02
  2.61240709890000e+02
  8.53546413510000e+01
  3.10350352450000e+01
  1.22608607280000e+01
  4.99870760050000e+00
  1.17031081580000e+00
  4.64747409940000e-01
  1.85045363570000e-01
  6.32749548010000e+01
  1.46270493790000e+01
  4.45012234560000e+00
  1.52757996470000e+00
  5.29351179430000e-01
  1.74784212700000e-01
  2.31400000000000e+00
  6.45000000000000e-01
  1.42800000000000e+00
  2.70323826310000e+04
  4.05238713920000e+03
  9.22327227100000e+02
  2.61240709890000e+02
  8.53546413510000e+01
  3.10350352450000e+01
  1.22608607280000e+01
  4.99870760050000e+00
  1.17031081580000e+00
  4.64747409940000e-01
  1.85045363570000e-01
  6.32749548010000e+01
  1.46270493790000e+01
  4.45012234560000e+00
  1.52757996470000e+00
  5.29351179430000e-01
  1.74784212700000e-01
  2.31400000000000e+00
  6.45000000000000e-01
  1.42800000000000e+00
  2.70323826310000e+04
  4.05238713920000e+03
  9.22327227100000e+02
  2.61240709890000e+02
  8.53546413510000e+01
  3.10350352450000e+01
  1.22608607280000e+01
  4.99870760050000e+00
  1.17031081580000e+00
  4.64747409940000e-01
  1.85045363570000e-01
  6.32749548010000e+01
  1.46270493790000e+01
  4.45012234560000e+00
  1.52757996470000e+00
  5.29351179430000e-01
  1.74784212700000e-01
  2.31400000000000e+00
  6.45000000000000e-01
  1.42800000000000e+00
  2.70323826310000e+04
  4.05238713920000e+03
  9.22327227100000e+02
  2.61240709890000e+02
  8.53546413510000e+01
  3.10350352450000e+01
  1.22608607280000e+01
  4.99870760050000e+00
  1.17031081580000e+00
  4.64747409940000e-01
  1.85045363570000e-01
  6.32749548010000e+01
  1.46270493790000e+01
  4.45012234560000e+00
  1.52757996470000e+00
  5.29351179430000e-01
  1.74784212700000e-01
  2.31400000000000e+00
  6.45000000000000e-01
  1.42800000000000e+00
  2.70323826310000e+04
  4.05238713920000e+03
  9.22327227100000e+02
  2.61240709890000e+02
  8.53546413510000e+01
  3.10350352450000e+01
  1.22608607280000e+01
  4.99870760050000e+00
  1.17031081580000e+00
  4.64747409940000e-01
  1.85045363570000e-01
  6.32749548010000e+01
  1.46270493790000e+01
  4.45012234560000e+00
  1.52757996470000e+00
  5.29351179430000e-01
  1.74784212700000e-01
  2.31400000000000e+00
  6.45000000000000e-01
  1.42800000000000e+00
  2.70323826310000e+04
  4.05238713920000e+03
  9.22327227100000e+02
  2.61240709890000e+02
  8.53546413510000e+01
  3.10350352450000e+01
  1.22608607280000e+01
  4.99870760050000e+00
  1.17031081580000e+00
  4.64747409940000e-01
  1.85045363570000e-01
  6.32749548010000e+01
  1.46270493790000e+01
  4.45012234560000e+00
  1.52757996470000e+00
  5.29351179430000e-01
  1.74784212700000e-01
  2.31400000000000e+00
  6.45000000000000e-01
  1.42800000000000e+00
  2.70323826310000e+04
  4.05238713920000e+03
  9.22327227100000e+02
  2.61240709890000e+02
  8.53546413510000e+01
  3.10350352450000e+01
  1.22608607280000e+01
  4.99870760050000e+00
  1.17031081580000e+00
  4.64747409940000e-01
  1.85045363570000e-01
  6.32749548010000e+01
  1.46270493790000e+01
  4.45012234560000e+00
  1.52757996470000e+00
  5.29351179430000e-01
  1.74784212700000e-01
  2.31400000000000e+00
  6.45000000000000e-01
  1.42800000000000e+00
  2.70323826310000e+04
  4.05238713920000e+03
  9.22327227100000e+02
  2.61240709890000e+02
  8.53546413510000e+01
  3.10350352450000e+01
  1.22608607280000e+01
  4.99870760050000e+00
  1.17031081580000e+00
  4.64747409940000e-01
  1.85045363570000e-01
  6.32749548010000e+01
  1.46270493790000e+01
  4.45012234560000e+00
  1.52757996470000e+00
  5.29351179430000e-01
  1.74784212700000e-01
  2.31400000000000e+00
  6.45000000000000e-01
  1.42800000000000e+00
  2.70323826310000e+04
  4.05238713920000e+03
  9.22327227100000e+02
  2.61240709890000e+02
  8.53546413510000e+01
  3.10350352450000e+01
  1.22608607280000e+01
  4.99870760050000e+00
  1.17031081580000e+00
  4.64747409940000e-01
  1.85045363570000e-01
  6.32749548010000e+01
  1.46270493790000e+01
  4.45012234560000e+00
  1.52757996470000e+00
  5.29351179430000e-01
  1.74784212700000e-01
  2.31400000000000e+00
  6.45000000000000e-01
  1.42800000000000e+00
  2.70323826310000e+04
  4.05238713920000e+03
  9.22327227100000e+02
  2.61240709890000e+02
  8.53546413510000e+01
  3.10350352450000e+01
  1.22608607280000e+01
  4.99870760050000e+00
  1.17031081580000e+00
  4.64747409940000e-01
  1.85045363570000e-01
  6.32749548010000e+01
  1.46270493790000e+01
  4.45012234560000e+00
  1.52757996470000e+00
  5.29351179430000e-01
  1.74784212700000e-01
  2.31400000000000e+00
  6.45000000000000e-01
  1.42800000000000e+00
  2.70323826310000e+04
  4.05238713920000e+03
  9.22327227100000e+02
  2.61240709890000e+02
  8.53546413510000e+01
  3.10350352450000e+01
  1.22608607280000e+01
  4.99870760050000e+00
  1.17031081580000e+00
  4.64747409940000e-01
  1.85045363570000e-01
  6.32749548010000e+01
  1.46270493790000e+01
  4.45012234560000e+00
  1.52757996470000e+00
  5.29351179430000e-01
  1.74784212700000e-01
  2.31400000000000e+00
  6.45000000000000e-01
  1.42800000000000e+00
  2.70323826310000e+04
  4.05238713920000e+03
  9.22327227100000e+02
  2.61240709890000e+02
  8.53546413510000e+01
  3.10350352450000e+01
  1.22608607280000e+01
  4.99870760050000e+00
  1.17031081580000e+00
  4.64747409940000e-01
  1.85045363570000e-01
  6.32749548010000e+01
  1.46270493790000e+01
  4.45012234560000e+00
  1.52757996470000e+00
  5.29351179430000e-01
  1.74784212700000e-01
  2.31400000000000e+00
  6.45000000000000e-01
  1.42800000000000e+00

  5.43590637341640e-01
  1.01455440957678e+00
  1.73157320313973e+00
  2.69103762923255e+00
  3.60445471307904e+00
  3.70255569805205e+00
  1.83835408314535e+00
  5.44757560454096e-01
  4.71814503811503e-01
  2.36494467595494e-01
  1.22114184794684e-01
  1.35966514595563e+00
  1.45125894851184e+00
  1.27092314192642e+00
  8.02572118948022e-01
  3.01875886874207e-01
  8.07265016506241e-02
  1.93540141597197e+00
  2.21644478159161e-01
  7.96287553418135e-01
  9.73106087343933e-01
  1.81224237364027e+00
  3.06211587998873e+00
  4.60751974293548e+00
  5.64285406447072e+00
  4.65737548687379e+00
  1.54844590126125e+00
  8.85003440430803e-01
  1.71754964781258e+00
 -1.77240444183369e+00
  6.34755069264484e-01
  1.08825269910943e-01
  1.27679810259400e-01
  5.99621510139067e-02
  5.83395367839964e+00
  6.94517385554491e+00
  6.47033263889273e+00
  4.01128311017259e+00
  1.42249246390442e+00
  7.30059230239136e-01
  1.77804263529115e-01
  3.69064748804282e-02
  1.43307841944265e+01
  1.88627909885626e-01
  1.56794572814139e-02
  9.73106087343933e-01
  1.81224237364027e+00
  3.06211587998873e+00
  4.60751974293548e+00
  5.64285406447072e+00
  4.65737548687379e+00
  1.54844590126125e+00
  8.85003440430803e-01
  1.71754964781258e+00
 -1.77240444183369e+00
  6.34755069264484e-01
  1.08825269910943e-01
  1.27679810259400e-01
  5.99621510139067e-02
  5.83395367839964e+00
  6.94517385554491e+00
  6.47033263889273e+00
  4.01128311017259e+00
  1.42249246390442e+00
  7.30059230239136e-01
  1.77804263529115e-01
  3.69064748804282e-02
  1.43307841944265e+01
  1.88627909885626e-01
  1.56794572814139e-02
  9.73106087343933e-01
  1.81224237364027e+00
  3.06211587998873e+00
  4.60751974293548e+00
  5.64285406447072e+00
  4.65737548687379e+00
  1.54844590126125e+00
  8.85003440430803e-01
  1.71754964781258e+00
 -1.77240444183369e+00
  6.34755069264484e-01
  1.08825269910943e-01
  1.27679810259400e-01
  5.99621510139067e-02
  5.83395367839964e+00
  6.94517385554491e+00
  6.47033263889273e+00
  4.01128311017259e+00
  1.42249246390442e+00
  7.30059230239136e-01
  1.77804263529115e-01
  3.69064748804282e-02
  1.43307841944265e+01
  1.88627909885626e-01
  1.56794572814139e-02
  9.73106087343933e-01
  1.81224237364027e+00
  3.06211587998873e+00
  4.60751974293548e+00
  5.64285406447072e+00
  4.65737548687379e+00
  1.54844590126125e+00
  8.85003440430803e-01
  1.71754964781258e+00
 -1.77240444183369e+00
  6.34755069264484e-01
  1.08825269910943e-01
  1.27679810259400e-01
  5.99621510139067e-02
  5.83395367839964e+00
  6.94517385554491e+00
  6.47033263889273e+00
  4.01128311017259e+00
  1.42249246390442e+00
  7.30059230239136e-01
  1.77804263529115e-01
  3.69064748804282e-02
  1.43307841944265e+01
  1.88627909885626e-01
  1.56794572814139e-02
  9.73106087343933e-01
  1.81224237364027e+00
  3.06211587998873e+00
  4.60751974293548e+00
  5.64285406447072e+00
  4.65737548687379e+00
  1.54844590126125e+00
  8.85003440430803e-01
  1.71754964781258e+00
 -1.77240444183369e+00
  6.34755069264484e-01
  1.08825269910943e-01
  1.27679810259400e-01
  5.99621510139067e-02
  5.83395367839964e+00
  6.94517385554491e+00
  6.47033263889273e+00
  4.01128311017259e+00
  1.42249246390442e+00
  7.30059230239136e-01
  1.77804263529115e-01
  3.69064748804282e-02
  1.43307841944265e+01
  1.88627909885626e-01
  1.56794572814139e-02
  9.73106087343933e-01
  1.81224237364027e+00
  3.06211587998873e+00
  4.60751974293548e+00
  5.64285406447072e+00
  4.65737548687379e+00
  1.54844590126125e+00
  8.85003440430803e-01
  1.71754964781258e+00
 -1.77240444183369e+00
  6.34755069264484e-01
  1.08825269910943e-01
  1.27679810259400e-01
  5.99621510139067e-02
  5.83395367839964e+00
  6.94517385554491e+00
  6.47033263889273e+00
  4.01128311017259e+00
  1.42249246390442e+00
  7.30059230239136e-01
  1.77804263529115e-01
  3.69064748804282e-02
  1.43307841944265e+01
  1.88627909885626e-01
  1.56794572814139e-02
  9.73106087343933e-01
  1.81224237364027e+00
  3.06211587998873e+00
  4.60751974293548e+00
  5.64285406447072e+00
  4.65737548687379e+00
  1.54844590126125e+00
  8.85003440430803e-01
  1.71754964781258e+00
 -1.77240444183369e+00
  6.34755069264484e-01
  1.08825269910943e-01
  1.27679810259400e-01
  5.99621510139067e-02
  5.83395367839964e+00
  6.94517385554491e+00
  6.47033263889273e+00
  4.01128311017259e+00
  1.42249246390442e+00
  7.30059230239136e-01
  1.77804263529115e-01
  3.69064748804282e-02
  1.43307841944265e+01
  1.88627909885626e-01
  1.56794572814139e-02
  9.73106087343933e-01
  1.81224237364027e+00
  3.06211587998873e+00
  4.60751974293548e+00
  5.64285406447072e+00
  4.65737548687379e+00
  1.54844590126125e+00
  8.85003440430803e-01
  1.71754964781258e+00
 -1.77240444183369e+00
  6.34755069264484e-01
  1.08825269910943e-01
  1.27679810259400e-01
  5.99621510139067e-02
  5.83395367839964e+00
  6.94517385554491e+00
  6.47033263889273e+00
  4.01128311017259e+00
  1.42249246390442e+00
  7.30059230239136e-01
  1.77804263529115e-01
  3.69064748804282e-02
  1.43307841944265e+01
  1.88627909885626e-01
  1.56794572814139e-02
  9.73106087343933e-01
  1.81224237364027e+00
  3.06211587998873e+00
  4.60751974293548e+00
  5.64285406447072e+00
  4.65737548687379e+00
  1.54844590126125e+00
  8.85003440430803e-01
  1.71754964781258e+00
 -1.77240444183369e+00
  6.34755069264484e-01
  1.08825269910943e-01
  1.27679810259400e-01
  5.99621510139067e-02
  5.83395367839964e+00
  6.94517385554491e+00
  6.47033263889273e+00
  4.01128311017259e+00
  1.42249246390442e+00
  7.30059230239136e-01
  1.77804263529115e-01
  3.69064748804282e-02
  1.43307841944265e+01
  1.88627909885626e-01
  1.56794572814139e-02
  9.73106087343933e-01
  1.81224237364027e+00
  3.06211587998873e+00
  4.60751974293548e+00
  5.64285406447072e+00
  4.65737548687379e+00
  1.54844590126125e+00
  8.85003440430803e-01
  1.71754964781258e+00
 -1.77240444183369e+00
  6.34755069264484e-01
  1.08825269910943e-01
  1.27679810259400e-01
  5.99621510139067e-02
  5.83395367839964e+00
  6.94517385554491e+00
  6.47033263889273e+00
  4.01128311017259e+00
  1.42249246390442e+00
  7.30059230239136e-01
  1.77804263529115e-01
  3.69064748804282e-02
  1.43307841944265e+01
  1.88627909885626e-01
  1.56794572814139e-02
  9.73106087343933e-01
  1.81224237364027e+00
  3.06211587998873e+00
  4.60751974293548e+00
  5.64285406447072e+00
  4.65737548687379e+00
  1.54844590126125e+00
  8.85003440430803e-01
  1.71754964781258e+00
 -1.77240444183369e+00
  6.34755069264484e-01
  1.08825269910943e-01
  1.27679810259400e-01
  5.99621510139067e-02
  5.83395367839964e+00
  6.94517385554491e+00
  6.47033263889273e+00
  4.01128311017259e+00
  1.42249246390442e+00
  7.30059230239136e-01
  1.77804263529115e-01
  3.69064748804282e-02
  1.43307841944265e+01
  1.88627909885626e-01
  1.56794572814139e-02
  9.73106087343933e-01
  1.81224237364027e+00
  3.06211587998873e+00
  4.60751974293548e+00
  5.64285406447072e+00
  4.65737548687379e+00
  1.54844590126125e+00
  8.85003440430803e-01
  1.71754964781258e+00
 -1.77240444183369e+00
  6.34755069264484e-01
  1.08825269910943e-01
  1.27679810259400e-01
  5.99621510139067e-02
  5.83395367839964e+00
  6.94517385554491e+00
  6.47033263889273e+00
  4.01128311017259e+00
  1.42249246390442e+00
  7.30059230239136e-01
  1.77804263529115e-01
  3.69064748804282e-02
  1.43307841944265e+01
  1.88627909885626e-01
  1.56794572814139e-02
  9.73106087343933e-01
  1.81224237364027e+00
  3.06211587998873e+00
  4.60751974293548e+00
  5.64285406447072e+00
  4.65737548687379e+00
  1.54844590126125e+00
  8.85003440430803e-01
  1.71754964781258e+00
 -1.77240444183369e+00
  6.34755069264484e-01
  1.08825269910943e-01
  1.27679810259400e-01
  5.99621510139067e-02
  5.83395367839964e+00
  6.94517385554491e+00
  6.47033263889273e+00
  4.01128311017259e+00
  1.42249246390442e+00
  7.30059230239136e-01
  1.77804263529115e-01
  3.69064748804282e-02
  1.43307841944265e+01
  1.88627909885626e-01
  1.56794572814139e-02
  9.73106087343933e-01
  1.81224237364027e+00
  3.06211587998873e+00
  4.60751974293548e+00
  5.64285406447072e+00
  4.65737548687379e+00
  1.54844590126125e+00
  8.85003440430803e-01
  1.71754964781258e+00
 -1.77240444183369e+00
  6.34755069264484e-01
  1.08825269910943e-01
  1.27679810259400e-01
  5.99621510139067e-02
  5.83395367839964e+00
  6.94517385554491e+00
  6.47033263889273e+00
  4.01128311017259e+00
  1.42249246390442e+00
  7.30059230239136e-01
  1.77804263529115e-01
  3.69064748804282e-02
  1.43307841944265e+01
  1.88627909885626e-01
  1.56794572814139e-02
  9.73106087343933e-01
  1.81224237364027e+00
  3.06211587998873e+00
  4.60751974293548e+00
  5.64285406447072e+00
  4.65737548687379e+00
  1.54844590126125e+00
  8.85003440430803e-01
  1.71754964781258e+00
 -1.77240444183369e+00
  6.34755069264484e-01
  1.08825269910943e-01
  1.27679810259400e-01
  5.99621510139067e-02
  5.83395367839964e+00
  6.94517385554491e+00
  6.47033263889273e+00
  4.01128311017259e+00
  1.42249246390442e+00
  7.30059230239136e-01
  1.77804263529115e-01
  3.69064748804282e-02
  1.43307841944265e+01
  1.88627909885626e-01
  1.56794572814139e-02
  9.73106087343933e-01
  1.81224237364027e+00
  3.06211587998873e+00
  4.60751974293548e+00
  5.64285406447072e+00
  4.65737548687379e+00
  1.54844590126125e+00
  8.85003440430803e-01
  1.71754964781258e+00
 -1.77240444183369e+00
  6.34755069264484e-01
  1.08825269910943e-01
  1.27679810259400e-01
  5.99621510139067e-02
  5.83395367839964e+00
  6.94517385554491e+00
  6.47033263889273e+00
  4.01128311017259e+00
  1.42249246390442e+00
  7.30059230239136e-01
  1.77804263529115e-01
  3.69064748804282e-02
  1.43307841944265e+01
  1.88627909885626e-01
  1.56794572814139e-02
  9.73106087343933e-01
  1.81224237364027e+00
  3.06211587998873e+00
  4.60751974293548e+00
  5.64285406447072e+00
  4.65737548687379e+00
  1.54844590126125e+00
  8.85003440430803e-01
  1.71754964781258e+00
 -1.77240444183369e+00
  6.34755069264484e-01
  1.08825269910943e-01
  1.27679810259400e-01
  5.99621510139067e-02
  5.83395367839964e+00
  6.94517385554491e+00
  6.47033263889273e+00
  4.01128311017259e+00
  1.42249246390442e+00
  7.30059230239136e-01
  1.77804263529115e-01
  3.69064748804282e-02
  1.43307841944265e+01
  1.88627909885626e-01
  1.56794572814139e-02
  9.73106087343933e-01
  1.81224237364027e+00
  3.06211587998873e+00
  4.60751974293548e+00
  5.64285406447072e+00
  4.65737548687379e+00
  1.54844590126125e+00
  8.85003440430803e-01
  1.71754964781258e+00
 -1.77240444183369e+00
  6.34755069264484e-01
  1.08825269910943e-01
  1.27679810259400e-01
  5.99621510139067e-02
  5.83395367839964e+00
  6.94517385554491e+00
  6.47033263889273e+00
  4.01128311017259e+00
  1.42249246390442e+00
  7.30059230239136e-01
  1.77804263529115e-01
  3.69064748804282e-02
  1.43307841944265e+01
  1.88627909885626e-01
  1.56794572814139e-02
  9.73106087343933e-01
  1.81224237364027e+00
  3.06211587998873e+00
  4.60751974293548e+00
  5.64285406447072e+00
  4.65737548687379e+00
  1.54844590126125e+00
  8.85003440430803e-01
  1.71754964781258e+00
 -1.77240444183369e+00
  6.34755069264484e-01
  1.08825269910943e-01
  1.27679810259400e-01
  5.99621510139067e-02
  5.83395367839964e+00
  6.94517385554491e+00
  6.47033263889273e+00
  4.01128311017259e+00
  1.42249246390442e+00
  7.30059230239136e-01
  1.77804263529115e-01
  3.69064748804282e-02
  1.43307841944265e+01
  1.88627909885626e-01
  1.56794572814139e-02
  9.73106087343933e-01
  1.81224237364027e+00
  3.06211587998873e+00
  4.60751974293548e+00
  5.64285406447072e+00
  4.65737548687379e+00
  1.54844590126125e+00
  8.85003440430803e-01
  1.71754964781258e+00
 -1.77240444183369e+00
  6.34755069264484e-01
  1.08825269910943e-01
  1.27679810259400e-01
  5.99621510139067e-02
  5.83395367839964e+00
  6.94517385554491e+00
  6.47033263889273e+00
  4.01128311017259e+00
  1.42249246390442e+00
  7.30059230239136e-01
  1.77804263529115e-01
  3.69064748804282e-02
  1.43307841944265e+01
  1.88627909885626e-01
  1.56794572814139e-02
  9.73106087343933e-01
  1.81224237364027e+00
  3.06211587998873e+00
  4.60751974293548e+00
  5.64285406447072e+00
  4.65737548687379e+00
  1.54844590126125e+00
  8.85003440430803e-01
  1.71754964781258e+00
 -1.77240444183369e+00
  6.34755069264484e-01
  1.08825269910943e-01
  1.27679810259400e-01
  5.99621510139067e-02
  5.83395367839964e+00
  6.94517385554491e+00
  6.47033263889273e+00
  4.01128311017259e+00
  1.42249246390442e+00
  7.30059230239136e-01
  1.77804263529115e-01
  3.69064748804282e-02
  1.43307841944265e+01
  1.88627909885626e-01
  1.56794572814139e-02
  9.73106087343933e-01
  1.81224237364027e+00
  3.06211587998873e+00
  4.60751974293548e+00
  5.64285406447072e+00
  4.65737548687379e+00
  1.54844590126125e+00
  8.85003440430803e-01
  1.71754964781258e+00
 -1.77240444183369e+00
  6.34755069264484e-01
  1.08825269910943e-01
  1.27679810259400e-01
  5.99621510139067e-02
  5.83395367839964e+00
  6.94517385554491e+00
  6.47033263889273e+00
  4.01128311017259e+00
  1.42249246390442e+00
  7.30059230239136e-01
  1.77804263529115e-01
  3.69064748804282e-02
  1.43307841944265e+01
  1.88627909885626e-01
  1.56794572814139e-02
  9.73106087343933e-01
  1.81224237364027e+00
  3.06211587998873e+00
  4.60751974293548e+00
  5.64285406447072e+00
  4.65737548687379e+00
  1.54844590126125e+00
  8.85003440430803e-01
  1.71754964781258e+00
 -1.77240444183369e+00
  6.34755069264484e-01
  1.08825269910943e-01
  1.27679810259400e-01
  5.99621510139067e-02
  5.83395367839964e+00
  6.94517385554491e+00
  6.47033263889273e+00
  4.01128311017259e+00
  1.42249246390442e+00
  7.30059230239136e-01
  1.77804263529115e-01
  3.69064748804282e-02
  1.43307841944265e+01
  1.88627909885626e-01
  1.56794572814139e-02
  9.73106087343933e-01
  1.81224237364027e+00
  3.06211587998873e+00
  4.60751974293548e+00
  5.64285406447072e+00
  4.65737548687379e+00
  1.54844590126125e+00
  8.85003440430803e-01
  1.71754964781258e+00
 -1.77240444183369e+00
  6.34755069264484e-01
  1.08825269910943e-01
  1.27679810259400e-01
  5.99621510139067e-02
  5.83395367839964e+00
  6.94517385554491e+00
  6.47033263889273e+00
  4.01128311017259e+00
  1.42249246390442e+00
  7.30059230239136e-01
  1.77804263529115e-01
  3.69064748804282e-02
  1.43307841944265e+01
  1.88627909885626e-01
  1.56794572814139e-02
  9.73106087343933e-01
  1.81224237364027e+00
  3.06211587998873e+00
  4.60751974293548e+00
  5.64285406447072e+00
  4.65737548687379e+00
  1.54844590126125e+00
  8.85003440430803e-01
  1.71754964781258e+00
 -1.77240444183369e+00
  6.34755069264484e-01
  1.08825269910943e-01
  1.27679810259400e-01
  5.99621510139067e-02
  5.83395367839964e+00
  6.94517385554491e+00
  6.47033263889273e+00
  4.01128311017259e+00
  1.42249246390442e+00
  7.30059230239136e-01
  1.77804263529115e-01
  3.69064748804282e-02
  1.43307841944265e+01
  1.88627909885626e-01
  1.56794572814139e-02
  9.73106087343933e-01
  1.81224237364027e+00
  3.06211587998873e+00
  4.60751974293548e+00
  5.64285406447072e+00
  4.65737548687379e+00
  1.54844590126125e+00
  8.85003440430803e-01
  1.71754964781258e+00
 -1.77240444183369e+00
  6.34755069264484e-01
  1.08825269910943e-01
  1.27679810259400e-01
  5.99621510139067e-02
  5.83395367839964e+00
  6.94517385554491e+00
  6.47033263889273e+00
  4.01128311017259e+00
  1.42249246390442e+00
  7.30059230239136e-01
  1.77804263529115e-01
  3.69064748804282e-02
  1.43307841944265e+01
  1.88627909885626e-01
  1.56794572814139e-02
  9.73106087343933e-01
  1.81224237364027e+00
  3.06211587998873e+00
  4.60751974293548e+00
  5.64285406447072e+00
  4.65737548687379e+00
  1.54844590126125e+00
  8.85003440430803e-01
  1.71754964781258e+00
 -1.77240444183369e+00
  6.34755069264484e-01
  1.08825269910943e-01
  1.27679810259400e-01
  5.99621510139067e-02
  5.83395367839964e+00
  6.94517385554491e+00
  6.47033263889273e+00
  4.01128311017259e+00
  1.42249246390442e+00
  7.30059230239136e-01
  1.77804263529115e-01
  3.69064748804282e-02
  1.43307841944265e+01
  1.88627909885626e-01
  1.56794572814139e-02
  9.73106087343933e-01
  1.81224237364027e+00
  3.06211587998873e+00
  4.60751974293548e+00
  5.64285406447072e+00
  4.65737548687379e+00
  1.54844590126125e+00
  8.85003440430803e-01
  1.71754964781258e+00
 -1.77240444183369e+00
  6.34755069264484e-01
  1.08825269910943e-01
  1.27679810259400e-01
  5.99621510139067e-02
  5.83395367839964e+00
  6.94517385554491e+00
  6.47033263889273e+00
  4.01128311017259e+00
  1.42249246390442e+00
  7.30059230239136e-01
  1.77804263529115e-01
  3.69064748804282e-02
  1.43307841944265e+01
  1.88627909885626e-01
  1.56794572814139e-02
  9.73106087343933e-01
  1.81224237364027e+00
  3.06211587998873e+00
  4.60751974293548e+00
  5.64285406447072e+00
  4.65737548687379e+00
  1.54844590126125e+00
  8.85003440430803e-01
  1.71754964781258e+00
 -1.77240444183369e+00
  6.34755069264484e-01
  1.08825269910943e-01
  1.27679810259400e-01
  5.99621510139067e-02
  5.83395367839964e+00
  6.94517385554491e+00
  6.47033263889273e+00
  4.01128311017259e+00
  1.42249246390442e+00
  7.30059230239136e-01
  1.77804263529115e-01
  3.69064748804282e-02
  1.43307841944265e+01
  1.88627909885626e-01
  1.56794572814139e-02
  9.73106087343933e-01
  1.81224237364027e+00
  3.06211587998873e+00
  4.60751974293548e+00
  5.64285406447072e+00
  4.65737548687379e+00
  1.54844590126125e+00
  8.85003440430803e-01
  1.71754964781258e+00
 -1.77240444183369e+00
  6.34755069264484e-01
  1.08825269910943e-01
  1.27679810259400e-01
  5.99621510139067e-02
  5.83395367839964e+00
  6.94517385554491e+00
  6.47033263889273e+00
  4.01128311017259e+00
  1.42249246390442e+00
  7.30059230239136e-01
  1.77804263529115e-01
  3.69064748804282e-02
  1.43307841944265e+01
  1.88627909885626e-01
  1.56794572814139e-02
  9.73106087343933e-01
  1.81224237364027e+00
  3.06211587998873e+00
  4.60751974293548e+00
  5.64285406447072e+00
  4.65737548687379e+00
  1.54844590126125e+00
  8.85003440430803e-01
  1.71754964781258e+00
 -1.77240444183369e+00
  6.34755069264484e-01
  1.08825269910943e-01
  1.27679810259400e-01
  5.99621510139067e-02
  5.83395367839964e+00
  6.94517385554491e+00
  6.47033263889273e+00
  4.01128311017259e+00
  1.42249246390442e+00
  7.30059230239136e-01
  1.77804263529115e-01
  3.69064748804282e-02
  1.43307841944265e+01
  1.88627909885626e-01
  1.56794572814139e-02
  9.73106087343933e-01
  1.81224237364027e+00
  3.06211587998873e+00
  4.60751974293548e+00
  5.64285406447072e+00
  4.65737548687379e+00
  1.54844590126125e+00
  8.85003440430803e-01
  1.71754964781258e+00
 -1.77240444183369e+00
  6.34755069264484e-01
  1.08825269910943e-01
  1.27679810259400e-01
  5.99621510139067e-02
  5.83395367839964e+00
  6.94517385554491e+00
  6.47033263889273e+00
  4.01128311017259e+00
  1.42249246390442e+00
  7.30059230239136e-01
  1.77804263529115e-01
  3.69064748804282e-02
  1.43307841944265e+01
  1.88627909885626e-01
  1.56794572814139e-02
  8.59858245512954e-01
  1.60553055583268e+00
  2.74587786008374e+00
  4.29876744377514e+00
  5.87976632606916e+00
  6.31639832217741e+00
  2.98121475220647e+00
  9.41955963472117e-01
  8.01929161019723e-01
  4.01164806220299e-01
  2.01079940597691e-01
  3.05720173538001e+00
  3.38448394330487e+00
  2.94742621281071e+00
  1.71182714942223e+00
  6.43605792621033e-01
  1.61089725392340e-01
  7.14570901056904e+00
  7.64080219480683e-01
  3.28165495951497e+00
  8.59858245512954e-01
  1.60553055583268e+00
  2.74587786008374e+00
  4.29876744377514e+00
  5.87976632606916e+00
  6.31639832217741e+00
  2.98121475220647e+00
  9.41955963472117e-01
  8.01929161019723e-01
  4.01164806220299e-01
  2.01079940597691e-01
  3.05720173538001e+00
  3.38448394330487e+00
  2.94742621281071e+00
  1.71182714942223e+00
  6.43605792621033e-01
  1.61089725392340e-01
  7.14570901056904e+00
  7.64080219480683e-01
  3.28165495951497e+00
  8.59858245512954e-01
  1.60553055583268e+00
  2.74587786008374e+00
  4.29876744377514e+00
  5.87976632606916e+00
  6.31639832217741e+00
  2.98121475220647e+00
  9.41955963472117e-01
  8.01929161019723e-01
  4.01164806220299e-01
  2.01079940597691e-01
  3.05720173538001e+00
  3.38448394330487e+00
  2.94742621281071e+00
  1.71182714942223e+00
  6.43605792621033e-01
  1.61089725392340e-01
  7.14570901056904e+00
  7.64080219480683e-01
  3.28165495951497e+00
  8.59858245512954e-01
  1.60553055583268e+00
  2.74587786008374e+00
  4.29876744377514e+00
  5.87976632606916e+00
  6.31639832217741e+00
  2.98121475220647e+00
  9.41955963472117e-01
  8.01929161019723e-01
  4.01164806220299e-01
  2.01079940597691e-01
  3.05720173538001e+00
  3.38448394330487e+00
  2.94742621281071e+00
  1.71182714942223e+00
  6.43605792621033e-01
  1.61089725392340e-01
  7.14570901056904e+00
  7.64080219480683e-01
  3.28165495951497e+00
  8.59858245512954e-01
  1.60553055583268e+00
  2.74587786008374e+00
  4.29876744377514e+00
  5.87976632606916e+00
  6.31639832217741e+00
  2.98121475220647e+00
  9.41955963472117e-01
  8.01929161019723e-01
  4.01164806220299e-01
  2.01079940597691e-01
  3.05720173538001e+00
  3.38448394330487e+00
  2.94742621281071e+00
  1.71182714942223e+00
  6.43605792621033e-01
  1.61089725392340e-01
  7.14570901056904e+00
  7.64080219480683e-01
  3.28165495951497e+00
  8.59858245512954e-01
  1.60553055583268e+00
  2.74587786008374e+00
  4.29876744377514e+00
  5.87976632606916e+00
  6.31639832217741e+00
  2.98121475220647e+00
  9.41955963472117e-01
  8.01929161019723e-01
  4.01164806220299e-01
  2.01079940597691e-01
  3.05720173538001e+00
  3.38448394330487e+00
  2.94742621281071e+00
  1.71182714942223e+00
  6.43605792621033e-01
  1.61089725392340e-01
  7.14570901056904e+00
  7.64080219480683e-01
  3.28165495951497e+00
  8.59858245512954e-01
  1.60553055583268e+00
  2.74587786008374e+00
  4.29876744377514e+00
  5.87976632606916e+00
  6.31639832217741e+00
  2.98121475220647e+00
  9.41955963472117e-01
  8.01929161019723e-01
  4.01164806220299e-01
  2.01079940597691e-01
  3.05720173538001e+00
  3.38448394330487e+00
  2.94742621281071e+00
  1.71182714942223e+00
  6.43605792621033e-01
  1.61089725392340e-01
  7.14570901056904e+00
  7.64080219480683e-01
  3.28165495951497e+00
  8.59858245512954e-01
  1.60553055583268e+00
  2.74587786008374e+00
  4.29876744377514e+00
  5.87976632606916e+00
  6.31639832217741e+00
  2.98121475220647e+00
  9.41955963472117e-01
  8.01929161019723e-01
  4.01164806220299e-01
  2.01079940597691e-01
  3.05720173538001e+00
  3.38448394330487e+00
  2.94742621281071e+00
  1.71182714942223e+00
  6.43605792621033e-01
  1.61089725392340e-01
  7.14570901056904e+00
  7.64080219480683e-01
  3.28165495951497e+00
  8.59858245512954e-01
  1.60553055583268e+00
  2.74587786008374e+00
  4.29876744377514e+00
  5.87976632606916e+00
  6.31639832217741e+00
  2.98121475220647e+00
  9.41955963472117e-01
  8.01929161019723e-01
  4.01164806220299e-01
  2.01079940597691e-01
  3.05720173538001e+00
  3.38448394330487e+00
  2.94742621281071e+00
  1.71182714942223e+00
  6.43605792621033e-01
  1.61089725392340e-01
  7.14570901056904e+00
  7.64080219480683e-01
  3.28165495951497e+00
  8.59858245512954e-01
  1.60553055583268e+00
  2.74587786008374e+00
  4.29876744377514e+00
  5.87976632606916e+00
  6.31639832217741e+00
  2.98121475220647e+00
  9.41955963472117e-01
  8.01929161019723e-01
  4.01164806220299e-01
  2.01079940597691e-01
  3.05720173538001e+00
  3.38448394330487e+00
  2.94742621281071e+00
  1.71182714942223e+00
  6.43605792621033e-01
  1.61089725392340e-01
  7.14570901056904e+00
  7.64080219480683e-01
  3.28165495951497e+00
  8.59858245512954e-01
  1.60553055583268e+00
  2.74587786008374e+00
  4.29876744377514e+00
  5.87976632606916e+00
  6.31639832217741e+00
  2.98121475220647e+00
  9.41955963472117e-01
  8.01929161019723e-01
  4.01164806220299e-01
  2.01079940597691e-01
  3.05720173538001e+00
  3.38448394330487e+00
  2.94742621281071e+00
  1.71182714942223e+00
  6.43605792621033e-01
  1.61089725392340e-01
  7.14570901056904e+00
  7.64080219480683e-01
  3.28165495951497e+00
  8.59858245512954e-01
  1.60553055583268e+00
  2.74587786008374e+00
  4.29876744377514e+00
  5.87976632606916e+00
  6.31639832217741e+00
  2.98121475220647e+00
  9.41955963472117e-01
  8.01929161019723e-01
  4.01164806220299e-01
  2.01079940597691e-01
  3.05720173538001e+00
  3.38448394330487e+00
  2.94742621281071e+00
  1.71182714942223e+00
  6.43605792621033e-01
  1.61089725392340e-01
  7.14570901056904e+00
  7.64080219480683e-01
  3.28165495951497e+00
  8.59858245512954e-01
  1.60553055583268e+00
  2.74587786008374e+00
  4.29876744377514e+00
  5.87976632606916e+00
  6.31639832217741e+00
  2.98121475220647e+00
  9.41955963472117e-01
  8.01929161019723e-01
  4.01164806220299e-01
  2.01079940597691e-01
  3.05720173538001e+00
  3.38448394330487e+00
  2.94742621281071e+00
  1.71182714942223e+00
  6.43605792621033e-01
  1.61089725392340e-01
  7.14570901056904e+00
  7.64080219480683e-01
  3.28165495951497e+00
  8.59858245512954e-01
  1.60553055583268e+00
  2.74587786008374e+00
  4.29876744377514e+00
  5.87976632606916e+00
  6.31639832217741e+00
  2.98121475220647e+00
  9.41955963472117e-01
  8.01929161019723e-01
  4.01164806220299e-01
  2.01079940597691e-01
  3.05720173538001e+00
  3.38448394330487e+00
  2.94742621281071e+00
  1.71182714942223e+00
  6.43605792621033e-01
  1.61089725392340e-01
  7.14570901056904e+00
  7.64080219480683e-01
  3.28165495951497e+00
  8.59858245512954e-01
  1.60553055583268e+00
  2.74587786008374e+00
  4.29876744377514e+00
  5.87976632606916e+00
  6.31639832217741e+00
  2.98121475220647e+00
  9.41955963472117e-01
  8.01929161019723e-01
  4.01164806220299e-01
  2.01079940597691e-01
  3.05720173538001e+00
  3.38448394330487e+00
  2.94742621281071e+00
  1.71182714942223e+00
  6.43605792621033e-01
  1.61089725392340e-01
  7.14570901056904e+00
  7.64080219480683e-01
  3.28165495951497e+00
  8.59858245512954e-01
  1.60553055583268e+00
  2.74587786008374e+00
  4.29876744377514e+00
  5.87976632606916e+00
  6.31639832217741e+00
  2.98121475220647e+00
  9.41955963472117e-01
  8.01929161019723e-01
  4.01164806220299e-01
  2.01079940597691e-01
  3.05720173538001e+00
  3.38448394330487e+00
  2.94742621281071e+00
  1.71182714942223e+00
  6.43605792621033e-01
  1.61089725392340e-01
  7.14570901056904e+00
  7.64080219480683e-01
  3.28165495951497e+00
  8.59858245512954e-01
  1.60553055583268e+00
  2.74587786008374e+00
  4.29876744377514e+00
  5.87976632606916e+00
  6.31639832217741e+00
  2.98121475220647e+00
  9.41955963472117e-01
  8.01929161019723e-01
  4.01164806220299e-01
  2.01079940597691e-01
  3.05720173538001e+00
  3.38448394330487e+00
  2.94742621281071e+00
  1.71182714942223e+00
  6.43605792621033e-01
  1.61089725392340e-01
  7.14570901056904e+00
  7.64080219480683e-01
  3.28165495951497e+00
  8.59858245512954e-01
  1.60553055583268e+00
  2.74587786008374e+00
  4.29876744377514e+00
  5.87976632606916e+00
  6.31639832217741e+00
  2.98121475220647e+00
  9.41955963472117e-01
  8.01929161019723e-01
  4.01164806220299e-01
  2.01079940597691e-01
  3.05720173538001e+00
  3.38448394330487e+00
  2.94742621281071e+00
  1.71182714942223e+00
  6.43605792621033e-01
  1.61089725392340e-01
  7.14570901056904e+00
  7.64080219480683e-01
  3.28165495951497e+00
  8.59858245512954e-01
  1.60553055583268e+00
  2.74587786008374e+00
  4.29876744377514e+00
  5.87976632606916e+00
  6.31639832217741e+00
  2.98121475220647e+00
  9.41955963472117e-01
  8.01929161019723e-01
  4.01164806220299e-01
  2.01079940597691e-01
  3.05720173538001e+00
  3.38448394330487e+00
  2.94742621281071e+00
  1.71182714942223e+00
  6.43605792621033e-01
  1.61089725392340e-01
  7.14570901056904e+00
  7.64080219480683e-01
  3.28165495951497e+00
  8.59858245512954e-01
  1.60553055583268e+00
  2.74587786008374e+00
  4.29876744377514e+00
  5.87976632606916e+00
  6.31639832217741e+00
  2.98121475220647e+00
  9.41955963472117e-01
  8.01929161019723e-01
  4.01164806220299e-01
  2.01079940597691e-01
  3.05720173538001e+00
  3.38448394330487e+00
  2.94742621281071e+00
  1.71182714942223e+00
  6.43605792621033e-01
  1.61089725392340e-01
  7.14570901056904e+00
  7.64080219480683e-01
  3.28165495951497e+00
  8.59858245512954e-01
  1.60553055583268e+00
  2.74587786008374e+00
  4.29876744377514e+00
  5.87976632606916e+00
  6.31639832217741e+00
  2.98121475220647e+00
  9.41955963472117e-01
  8.01929161019723e-01
  4.01164806220299e-01
  2.01079940597691e-01
  3.05720173538001e+00
  3.38448394330487e+00
  2.94742621281071e+00
  1.71182714942223e+00
  6.43605792621033e-01
  1.61089725392340e-01
  7.14570901056904e+00
  7.64080219480683e-01
  3.28165495951497e+00
  8.59858245512954e-01
  1.60553055583268e+00
  2.74587786008374e+00
  4.29876744377514e+00
  5.87976632606916e+00
  6.31639832217741e+00
  2.98121475220647e+00
  9.41955963472117e-01
  8.01929161019723e-01
  4.01164806220299e-01
  2.01079940597691e-01
  3.05720173538001e+00
  3.38448394330487e+00
  2.94742621281071e+00
  1.71182714942223e+00
  6.43605792621033e-01
  1.61089725392340e-01
  7.14570901056904e+00
  7.64080219480683e-01
  3.28165495951497e+00
  8.59858245512954e-01
  1.60553055583268e+00
  2.74587786008374e+00
  4.29876744377514e+00
  5.87976632606916e+00
  6.31639832217741e+00
  2.98121475220647e+00
  9.41955963472117e-01
  8.01929161019723e-01
  4.01164806220299e-01
  2.01079940597691e-01
  3.05720173538001e+00
  3.38448394330487e+00
  2.94742621281071e+00
  1.71182714942223e+00
  6.43605792621033e-01
  1.61089725392340e-01
  7.14570901056904e+00
  7.64080219480683e-01
  3.28165495951497e+00
  8.59858245512954e-01
  1.60553055583268e+00
  2.74587786008374e+00
  4.29876744377514e+00
  5.87976632606916e+00
  6.31639832217741e+00
  2.98121475220647e+00
  9.41955963472117e-01
  8.01929161019723e-01
  4.01164806220299e-01
  2.01079940597691e-01
  3.05720173538001e+00
  3.38448394330487e+00
  2.94742621281071e+00
  1.71182714942223e+00
  6.43605792621033e-01
  1.61089725392340e-01
  7.14570901056904e+00
  7.64080219480683e-01
  3.28165495951497e+00
  8.59858245512954e-01
  1.60553055583268e+00
  2.74587786008374e+00
  4.29876744377514e+00
  5.87976632606916e+00
  6.31639832217741e+00
  2.98121475220647e+00
  9.41955963472117e-01
  8.01929161019723e-01
  4.01164806220299e-01
  2.01079940597691e-01
  3.05720173538001e+00
  3.38448394330487e+00
  2.94742621281071e+00
  1.71182714942223e+00
  6.43605792621033e-01
  1.61089725392340e-01
  7.14570901056904e+00
  7.64080219480683e-01
  3.28165495951497e+00
  8.59858245512954e-01
  1.60553055583268e+00
  2.74587786008374e+00
  4.29876744377514e+00
  5.87976632606916e+00
  6.31639832217741e+00
  2.98121475220647e+00
  9.41955963472117e-01
  8.01929161019723e-01
  4.01164806220299e-01
  2.01079940597691e-01
  3.05720173538001e+00
  3.38448394330487e+00
  2.94742621281071e+00
  1.71182714942223e+00
  6.43605792621033e-01
  1.61089725392340e-01
  7.14570901056904e+00
  7.64080219480683e-01
  3.28165495951497e+00
  8.59858245512954e-01
  1.60553055583268e+00
  2.74587786008374e+00
  4.29876744377514e+00
  5.87976632606916e+00
  6.31639832217741e+00
  2.98121475220647e+00
  9.41955963472117e-01
  8.01929161019723e-01
  4.01164806220299e-01
[...]
 -0.12241 -0.11788 -0.11753 -0.11751 -0.11751 -0.11649 -0.11649 -0.11629 -0.11565 -0.11565
 -0.11225 -0.11222 -0.11198 -0.11197 -0.10955 -0.10943 -0.10943 -0.10915 -0.10791 -0.10579
 -0.10579 -0.10463 -0.10463 -0.10424 -0.10268 -0.09610 -0.09610 -0.09602 -0.09601 -0.09585
 -0.09518 -0.09245 -0.09240 -0.09240 -0.09239 -0.09074 -0.09074 0.01819 0.01819 0.02734
 0.06460 0.07452 0.07491 0.07491 0.07518 0.09160 0.09380 0.09380 0.10035 0.10990
 0.10999 0.10999 0.11018 0.12532 0.12885 0.12885 0.13781 0.14586 0.14741 0.14741
 0.15860 0.15883 0.17062 0.17208 0.17360 0.17360 0.17398 0.17419 0.17432 0.17432
 0.17433 0.18786 0.18885 0.19100 0.19100 0.19235 0.19235 0.19465 0.19652 0.19655
 0.21172 0.21172 0.21369 0.21739 0.21762 0.21762 0.21803 0.21934 0.23162 0.23162
 0.23163 0.23231 0.24010 0.24069 0.24073 0.24073 0.24144 0.24814 0.24821 0.24821
 0.24968 0.25536 0.26191 0.26191 0.26460 0.26540 0.27039 0.27039 0.27085 0.27380
 0.27525 0.27652 0.27652 0.27946 0.27946 0.28578 0.29214 0.29807 0.30107 0.30147
 0.30147 0.30276 0.30315 0.30348 0.30348 0.30351 0.30368 0.30490 0.30490 0.30540
 0.30598 0.30598 0.30986 0.31911 0.32128 0.32129 0.32129 0.32139 0.32594 0.32594
 0.32740 0.32999 0.32999 0.33738 0.33823 0.33832 0.33861 0.33861 0.34250 0.34697
 0.34697 0.34700 0.35302 0.35733 0.35885 0.35896 0.35896 0.35918 0.36213 0.36213
 0.36584 0.36584 0.36705 0.36755 0.36821 0.36821 0.36888 0.37364 0.37713 0.38001
 0.38001 0.38150 0.38233 0.38723 0.38789 0.38789 0.38936 0.38936 0.38954 0.38987
 0.39381 0.39512 0.39841 0.40283 0.40285 0.40285 0.40304 0.40334 0.40335 0.40335
 0.40367 0.40404 0.40404 0.40630 0.41008 0.41008 0.41148 0.41510 0.41806 0.41806
 0.41809 0.41906 0.41954 0.41954 0.41958 0.42137 0.42296 0.43385 0.43607 0.43607
 0.43782 0.44432 0.45666 0.45742 0.45742 0.45749 0.46423 0.46783 0.47399 0.47431
 0.47520 0.47520 0.47562 0.47562 0.47826 0.47831 0.47831 0.47840 0.48174 0.48252
 0.48268 0.48316 0.48316 0.48393 0.48698 0.48933 0.49085 0.49095 0.49095 0.49541
 0.49541 0.50289 0.51517 0.51611 0.51760 0.52099 0.52099 0.52180 0.52387 0.52387
 0.52533 0.52749 0.52767 0.52767 0.52775 0.52875 0.53107 0.53205 0.53205 0.53370
 0.53370 0.53468 0.53505 0.53505 0.53506 0.53688 0.53688 0.54002 0.54197 0.54564
 0.54564 0.54609 0.54625 0.54625 0.54652 0.55332 0.55378 0.55843 0.55843 0.56049
 0.56179 0.56326 0.56561 0.56561 0.56721 0.56753 0.57185 0.57214 0.57229 0.57229
 0.57663 0.57663 0.57663 0.58266 0.58266 0.58444 0.58444 0.58950 0.59461 0.59620
 0.59692 0.59692 0.60079 0.60079 0.60433 0.60500 0.60500 0.60503 0.60877 0.60877
 0.61272 0.61915 0.61987 0.62042 0.62042 0.62305 0.62347 0.62347 0.62720 0.63233
 0.63372 0.63372 0.63771 0.64103 0.64109 0.64109 0.64590 0.65304 0.65928 0.66092
 0.66674 0.66674 0.67217 0.67282 0.67282 0.67549 0.67549 0.67816 0.67877 0.68345
 0.68691 0.68760 0.69128 0.69128 0.69394 0.69599 0.69886 0.69886 0.70012 0.70012
 0.70253 0.70273 0.70470 0.70470 0.70497 0.70514 0.70683 0.70743 0.70852 0.70852
 0.70864 0.71099 0.71099 0.71170 0.71469 0.72475 0.72550 0.72550 0.74022 0.74859
 0.74859 0.74887 0.75025 0.75858 0.76133 0.76133 0.76716 0.76867 0.76913 0.77295
 0.77312 0.77312 0.77349 0.78383 0.78639 0.78639 0.79005 0.79321 0.79468 0.79468
 0.79470 0.79810 0.79810 0.80088 0.80088 0.80176 0.81556 0.81606 0.82087 0.82544
 0.82544 0.82646 0.82757 0.82845 0.82860 0.82870 0.82870 0.83070 0.83167 0.83167
 0.83431 0.83550 0.83550 0.83801 0.83816 0.84063 0.84127 0.84127 0.84292 0.84515
 0.85381 0.85381 0.85427 0.85463 0.85605 0.85605 0.86089 0.86115 0.86194 0.86324
 0.86325 0.86325 0.86561 0.86604 0.86604 0.86626 0.86957 0.87062 0.87084 0.87084
 0.87176 0.87445 0.87445 0.87701 0.87701 0.87877 0.88388 0.89124 0.89262 0.89262
 0.89477 0.90248 0.90248 0.91387 0.91509 0.93326 0.93326 0.93403 0.93569 0.93588
 0.93588 0.94092 0.94674 0.94827 0.94898 0.94898 0.94917 0.95056 0.95265 0.95372
 0.95372 0.95465 0.95544 0.95594 0.95657 0.95723 0.95830 0.95992 0.96083 0.96083
 0.96083 0.96687 0.96689 0.96689 0.96860 0.97507 0.97560 0.97560 0.97585 0.97706
 0.97738 0.97746 0.97746 0.97964 0.97964 0.98174 0.98341 0.98392 0.98417 0.98417
 0.98603 0.98603 0.98857 0.98971 0.98971 0.99049 0.99221 0.99282 0.99602 1.00227
 1.00227 1.00707 1.00707 1.01088 1.02160 1.02160 1.03056 1.03218 1.03386 1.03386
 1.03576 1.03576 1.04589 1.04592 1.04999 1.05000 1.05658 1.06180 1.06272 1.06272
 1.06701 1.07101 1.07101 1.07202 1.07217 1.07277 1.07300 1.07352 1.07353 1.07417
 1.07468 1.07501 1.07542 1.07542 1.07706 1.07706 1.08084 1.08373 1.08492 1.08492
 1.08669 1.08767 1.09503 1.10026 1.10026 1.10221 1.10509 1.10827 1.10827 1.11017
 1.11080 1.11728 1.11799 1.11799 1.11901 1.12145 1.12364 1.12364 1.12521 1.12535
 1.12761 1.12863 1.12901 1.12911 1.12911 1.13278 1.13278 1.13318 1.14246 1.15409
 1.15409 1.16097 1.16097 1.16131 1.17002 1.17002 1.17010 1.17164 1.18429 1.18655
 1.20255 1.20431 1.20522 1.20522 1.20810 1.22558 1.22558 1.23617 1.24800 1.25295
 1.25295 1.25338 1.25730 1.25889 1.25901 1.25901 1.26345 1.26744 1.26744 1.27250
 1.27410 1.27410 1.27803 1.28041 1.28500 1.28524 1.28993 1.28994 1.29763 1.29763
 1.29918 1.30485 1.30596 1.30828 1.31952 1.31961 1.31961 1.32902 1.32902 1.33713
 1.34366 1.34370 1.34551 1.34551 1.34695 1.34695 1.35311 1.35577 1.35733 1.35733
 1.35845 1.35845 1.36122 1.36817 1.40471 1.40703 1.40741 1.41022 1.41022 1.41091
 1.41131 1.41197 1.41197 1.43317 1.43589 1.43668 1.43668 1.46228 1.46336 1.46337
 1.46969 1.47008 1.47062 1.47063 1.47216 1.47245 1.47245 1.47629 1.47728 1.47728
 1.47783 1.49104 1.49488 1.49612 1.49612 1.50685 1.50685 1.50731 1.50757 1.50974
 1.50981 1.50981 1.51013 1.51248 1.51255 1.51255 1.51514 1.51514 1.51891 1.52065
 1.52132 1.52174 1.52174 1.52338 1.52511 1.52956 1.54092 1.54097 1.54974 1.56233
 1.56233 1.56478 1.56528 1.56528 1.56659 1.56695 1.56695 1.56716 1.57180 1.57637
 1.57637 1.57916 1.58022 1.58039 1.58413 1.58413 1.58607 1.59313 1.59313 1.60095
 1.60636 1.60636 1.61954 1.62478 1.63132 1.63380 1.63381 1.63487 1.63490 1.63612
 1.63792 1.63867 1.63867 1.64038 1.64131 1.64131 1.64213 1.64233 1.64243 1.64305
 1.64305 1.64581 1.64581 1.64789 1.64906 1.65279 1.65279 1.65368 1.65577 1.65577
 1.65867 1.66712 1.66782 1.66782 1.67534 1.68029 1.68119 1.68119 1.68320 1.68465
 1.68824 1.68824 1.71035 1.72794 1.74232 1.74232 1.75382 1.75530 1.75930 1.76042
 1.76042 1.76198 1.77286 1.77286 1.80454 1.83438 1.84946 1.88231 1.88231 1.89478
 1.91223 1.91317 1.91512 1.91512 1.92246 1.92247 1.92545 1.92675 1.93645 1.93645
 1.93689 1.94463 1.94463 1.94559 1.94860 1.95423 1.95423 1.95668 1.96424 1.96892
 1.97004 1.97005 1.97062 1.97062 1.98841 1.98958 1.98999 1.98999 1.99956 2.00038
 2.00218 2.00218 2.00284 2.00393 2.01001 2.01001 2.02023 2.02152 2.02790 2.02790
 2.03480 2.03480 2.04226 2.04532 2.04533 2.05147 2.05173 2.05173 2.05251 2.05251
 2.05387 2.05670 2.05682 2.05809 2.05809 2.06052 2.06413 2.06629 2.06629 2.06834
 2.06834 2.08029 2.08197 2.08733 2.08854 2.08854 2.08885 2.09270 2.09270 2.09283
 2.09326 2.09517 2.09540 2.09540 2.09547 2.09612 2.09672 2.09672 2.09890 2.09923
 2.10100 2.10100 2.10146 2.10375 2.10895 2.11636 2.11636 2.14226 2.14484 2.14603
 2.14757 2.14757 2.14932 2.15180 2.15609 2.15655 2.15974 2.15975 2.16960 2.17057
 2.17057 2.17579 2.17676 2.17935 2.17935 2.19420 2.22273 2.22323 2.22339 2.22339
 2.22431 2.23878 2.23878 2.23883 2.23939 2.27100 2.27451 2.27641 2.27669 2.27669
 2.28539 2.28857 2.30374 2.30391 2.31776 2.32055 2.32056 2.32222 2.32333 2.32344
 2.32437 2.32437 2.32465 2.32465 2.33619 2.33619 2.36408 2.38375 2.38375 2.38452
 2.38470 2.44075 2.44526 2.45059 2.45379 2.46680 2.46681 2.47105 2.48806 2.48809
 2.48809 2.48828 2.49383 2.49593 2.49640 2.49684 2.49684 2.49970 2.49970 2.50047
 2.50824 2.50825 2.51493 2.52606 2.52610 2.52610 2.53100 2.54904 2.54904 2.54918
 2.55152 2.56085 2.58427 2.58469 2.58469 2.58587 2.59606 2.61436 2.61832 2.61832
 2.62528 2.63331 2.64089 2.64089 2.64614 2.65744 2.66044 2.66044 2.66175 2.67057
 2.67170 2.67181 2.67181 2.67441 2.67972 2.67972 2.69912 2.69912 2.71523 2.71523
 2.72637 2.72889 2.73233 2.73233 2.73238 2.75787 2.75861 2.75861 2.76306 2.76471
 2.76747 2.76747 2.77264 2.77277 2.78015 2.78133 2.78133 2.78627 2.78826 2.78826
 2.79640 2.79640 2.80124 2.84292 2.86427 2.86428 2.89864 2.89969 2.94520 2.94521
 2.97664 2.97665 3.02632 3.04407 3.04407 3.04586 3.05597 3.05780 3.05983 3.06104
 3.06104 3.07595 3.08046 3.08891 3.08891 3.09130 3.09203 3.09522 3.09522 3.09860
 3.10508 3.11072 3.11794 3.11846 3.11846 3.14228 3.14228 3.17844 3.17844 3.18324
 3.18967 3.19293 3.19293 3.19688 3.19762 3.21431 3.21799 3.21799 3.22009 3.22614
 3.22614 3.22912 3.23445 3.23654 3.23654 3.23748 3.23976 3.24049 3.24049 3.24509
 3.24941 3.25501 3.25501 3.25781 3.25990 3.27826 3.27826 3.27891 3.27899 3.28403
 3.28403 3.29035 3.29724 3.29876 3.33827 3.33827 3.36228 3.38353 3.38459 3.38568
 3.38717 3.38717 3.38801 3.39347 3.39347 3.39796 3.40101 3.42311 3.42311 3.42592
 3.42688 3.44850 3.45549 3.45549 3.46775 3.46775 3.48260 3.49810 3.49934 3.49934
 3.50446 3.50446 3.52633 3.53797 3.53990 3.54510 3.54510 3.55271 3.55333 3.55765
 3.55863 3.55863 3.56270 3.56853 3.56853 3.62013 3.68681 3.68681 3.72730 3.72730
 3.74711 3.74722 3.76935 3.76935 3.78389 3.84919 3.87372 3.87372 3.87431 3.87472
 3.87591 3.87591 3.87787 3.88004 3.88160 3.88160 3.88444 3.92838 3.94748 3.94785
 3.94785 3.96917 3.97532 3.97571 3.97571 3.97655 3.97899 3.97899 3.98027 3.98029
 3.99205 3.99350 3.99350 3.99657 4.01750 4.16705 4.17888 4.26281 5.05253 5.05253
 5.15464 5.16247 5.16468 5.16535 5.16535 5.16550 5.16609 5.16692 5.16820 5.16825
 5.16847 5.16847 5.16859 5.16859 5.16860 5.16888 5.16888 5.16907 5.16937 5.16978
 5.17074 5.17074 5.17095 5.17121 5.17125 5.17125 5.17221 5.17221 5.17372 5.17372
 5.17431 5.17530 5.17533 5.17533 5.17569 5.17576 5.17878 5.17944 5.17944 5.17945
 5.17965 5.18485 5.18521 5.18523 5.18533 5.18533 5.18585 5.18585 5.18640 5.18647
 5.18652 5.18652 5.18825 5.18899 5.18901 5.18908 5.18908 5.18941 5.18941 5.18951
 5.19194 5.19209 5.19217 5.19217 5.19260 5.19262 5.19262 5.19287 5.19300 5.19303
 5.19370 5.19370 5.19385 5.19598 5.19974 5.19974 5.20192 5.20327 5.20684 5.20686
 5.20711 5.20711 5.20782 5.20824 5.20824 5.20830 5.20922 5.20951 5.20951 5.20981
 5.21085 5.21085 5.21139 5.21213 5.21511 5.21520 5.21520 5.21886 5.21919 5.21932
 5.21948 5.21948 5.21976 5.22150 5.22150 5.22599 5.22599 5.22761 5.22793 5.22800
 5.22860 5.22860 5.23022 5.23022 5.23059 5.23361 5.23669 5.23790 5.23967 5.23967
 5.24193 5.24225 5.24374 5.24470 5.24569 5.24569 5.24647 5.24702 5.24702 5.24757
 5.24820 5.24820 5.25333 5.25333 5.25593 5.25791 5.26124 5.27980 5.28151 5.28151
 5.28190 5.28356 5.28356 5.28534 5.28815 5.28956 5.29007 5.29007 5.29233 5.29500
 5.29846 5.29846 5.29931 5.30543 5.30543 5.31076 5.31605 5.33774 5.33807 5.33867
 5.33885 5.33885 5.33927 5.33927 5.33963 5.34402 5.34926 5.35112 5.35725 5.35725
 5.35762 5.35926 5.35926 5.35953 5.35963 5.36007 5.36170 5.36170 5.36266 5.36266
 5.36761 5.36910 5.37738 5.37738 5.37762 5.38037 5.39044 5.39101 5.39101 5.39109
 5.39614 5.39614 5.39779 5.39797 5.39881 5.39881 5.41239 5.41363 5.41376 5.41376
 5.41590 5.41719 5.41723 5.41723 5.42043 5.42192 5.42192 5.42270 5.42303 5.42525
 5.42846 5.42846 5.44309 5.44550 5.45618 5.45618 5.46651 5.46651 5.47558 5.47851
 5.48085 5.48167 5.48167 5.48229 5.49000 5.49000 5.82043 5.98532 5.98866 5.98867
 5.99920 6.02661 6.02744 6.02744 6.04459 6.08361 6.09827 6.15560 6.15560 6.20138
 6.20771 6.23319 6.23415 6.23481 6.23481 6.24473 6.25176 6.25257 6.25257 6.25466
 6.26413 6.30076 6.30076 6.30384 6.30503 6.30606 6.30606 6.31103 6.31103 6.31296
 6.31296 6.31346 6.31442 6.31634 6.31634 6.31663 6.31830 6.31855 6.31882 6.31987
 6.32210 6.32409 6.32569 6.32569 6.32936 6.33009 6.33009 6.34315 6.34827 6.34827
 6.35545 6.36295 6.36295 6.36346 6.36346 6.36406 6.36406 6.36477 6.36738 6.36863
 6.36925 6.36925 6.38080 6.38180 6.39279 6.39473 6.39541 6.40005 6.40101 6.40329
 6.40384 6.40384 6.40726 6.40726 6.42001 6.42040 6.42049 6.42192 6.42192 6.42279
 6.42439 6.42553 6.42553 6.43924 6.43925 6.44035 6.44035 6.45890 6.46224 6.46260
 6.46260 6.46275 6.46637 6.47235 6.47333 6.47333 6.47461 6.47710 6.48012 6.48012
 6.48098 6.48269 6.48269 6.48320 6.48328 6.48549 6.48549 6.48629 6.48761 6.48761
 6.48831 6.48839 6.49086 6.49112 6.49429 6.49429 6.49767 6.49794 6.49901 6.49901
 6.49921 6.50051 6.50051 6.51526 6.53197 6.53420 6.53612 6.53612 6.53651 6.54470
 6.55508 6.55569 6.55569 6.55571 6.55610 6.55691 6.56018 6.56018 6.56232 6.56823
 6.56823 6.57175 6.57303 6.57303 6.57420 6.57462 6.57462 6.57498 6.57524 6.57596
 6.57897 6.57897 6.58078 6.58672 6.59260 6.59260 6.59300 6.59309 6.59334 6.59347
 6.59406 6.59406 6.59721 6.59721 6.60235 6.61368 6.61395 6.61419 6.61419 6.61748
 6.61771 6.61771 6.61797 6.61915 6.61920 6.61920 6.61955 6.62150 6.62150 6.62351
 6.62590 6.62666 6.62666 6.62691 6.62969 6.62969 6.62992 6.63341 6.63341 6.64092
 6.65099 6.65185 6.65185 6.66268 6.66717 6.66743 6.66773 6.66773 6.67384 6.67384
 6.67429 6.67509 6.68388 6.68413 6.68414 6.68467 6.68467 6.68551 6.68623 6.68623
 6.68697 6.68738 6.68762 6.69415 6.69415 6.69586 6.69905 6.69905 6.70316 6.70316
 6.70491 6.70666 6.71866 6.71866 6.72409 6.73260 6.73260 6.73407 6.73524 6.73524
 6.74339 6.74621 6.74688 6.74688 6.74918 6.75452 6.75452 6.75804 6.76084 6.76599
 6.76711 6.76711 6.76740 6.77733 6.77833 6.77833 6.78418 6.78835 6.78835 6.78885
 6.78942 6.79222 6.81754 6.82244 6.85122 6.85184 6.85329 6.85329 6.85694 6.86516
 6.86516 6.86824 6.86824 6.87108 6.87367 6.87367 6.87606 6.87693 6.87720 6.87835
 6.87835 6.87903 6.88619 6.89641 6.89670 6.89670 6.89783 6.90329 6.90329 6.90859
 6.90860 6.90860 6.90948 6.90960 6.91046 6.91046 6.91548 6.91768 6.91768 6.92154
 6.92339 6.92372 6.92372 6.92516 6.93286 6.99594 7.01112 7.01112 7.02439 7.02443
 7.02466 7.02567 7.02567 7.02961 7.02994 7.02994 7.04145 7.04886 7.05338 7.06140
 7.06140 7.10079 7.10519 7.11300 7.11300 7.11555 7.16181 7.17056 7.17880 7.18111
 7.18472 7.18472 7.18770 7.18795 7.19039 7.19040 7.21670 7.22473 7.23759 7.23770
 7.23770 7.23931 7.26830 7.27603 7.27737 7.27737 7.27831 7.28002 7.28414 7.28469
 7.28496 7.28496 7.28904 7.31836 7.31836 7.32190 7.34122 7.34122 7.35460 7.39832
 7.41388 7.44447 7.46919 7.49676 7.49676 7.65745 22.55115 43.60154 43.81450 43.82324
 43.82324 43.82797 43.84041 43.84319 43.84682 43.84682 43.85537 43.86338 43.86499 43.86499
 43.89834 43.98729 43.98729 43.98974 44.01213 44.03504 44.03504 44.03590 44.03953 44.03961
 44.04279 44.04279 44.04579 44.05446 44.05446 44.05584 44.05780 44.21229 44.32016 44.34284

 ---------------------------------------------------------------------------
 VBM is at 0-th k-point with -2.46928 eV
 CBM is at 0-th k-point with 0.49510 eV
 Band gap is 2.96438 eV


           Ground-State Mulliken Net Atomic Charges

      Atom                 Charge (a.u.)          Spin (a.u.)
   --------------------------------------------------------
      1  C              (-0.089398,-0.000000)    (0.000000,0.000000)
      2 Mg               (1.144389,-0.000000)    (0.000000,0.000000)
      3 Mg               (1.266329,-0.000000)    (0.000000,0.000000)
      4 Mg               (1.238028,-0.000000)    (0.000000,0.000000)
      5 Mg               (1.238023,-0.000000)    (0.000000,0.000000)
      6 Mg               (1.238035,-0.000000)    (0.000000,0.000000)
      7 Mg               (1.238033,-0.000000)    (0.000000,0.000000)
      8 Mg               (1.266331,-0.000000)    (0.000000,0.000000)
      9 Mg               (1.238019,-0.000000)    (0.000000,0.000000)
     10 Mg               (1.266329,-0.000000)    (0.000000,0.000000)
     11 Mg               (1.238027,-0.000000)    (0.000000,0.000000)
     12 Mg               (1.144381,-0.000000)    (0.000000,0.000000)
     13 Mg               (1.266334,-0.000000)    (0.000000,0.000000)
     14 Mg               (1.238026,-0.000000)    (0.000000,0.000000)
     15 Mg               (1.144382,-0.000000)    (0.000000,0.000000)
     16 Mg               (1.238030,-0.000000)    (0.000000,0.000000)
     17 Mg               (1.144379,-0.000000)    (0.000000,0.000000)
     18 Mg               (4.471394,-0.000000)    (0.000000,0.000000)
     19 Mg               (1.288242,-0.000000)    (0.000000,0.000000)
     20 Mg               (1.248030,-0.000000)    (0.000000,0.000000)
     21 Mg               (0.911600,-0.000000)    (0.000000,0.000000)
     22 Mg               (1.288243,-0.000000)    (0.000000,0.000000)
     23 Mg               (0.911605,-0.000000)    (0.000000,0.000000)
     24 Mg               (1.355915,-0.000000)    (0.000000,0.000000)
     25 Mg               (1.581882,-0.000000)    (0.000000,0.000000)
     26 Mg               (1.355914,-0.000000)    (0.000000,0.000000)
     27 Mg               (1.355917,-0.000000)    (0.000000,0.000000)
     28 Mg               (1.288226,-0.000000)    (0.000000,0.000000)
     29 Mg               (0.911582,-0.000000)    (0.000000,0.000000)
     30 Mg               (1.288211,-0.000000)    (0.000000,0.000000)
     31 Mg               (1.355905,-0.000000)    (0.000000,0.000000)
     32 Mg               (1.581847,-0.000000)    (0.000000,0.000000)
     33 Mg               (0.911607,-0.000000)    (0.000000,0.000000)
     34  O              (-1.337629,-0.000000)    (0.000000,0.000000)
     35  O              (-1.334896,-0.000000)    (0.000000,0.000000)
     36  O              (-1.330422,-0.000000)    (0.000000,0.000000)
     37  O              (-1.334897,-0.000000)    (0.000000,0.000000)
     38  O              (-1.334895,-0.000000)    (0.000000,0.000000)
     39  O              (-1.334968,-0.000000)    (0.000000,0.000000)
     40  O              (-1.334645,-0.000000)    (0.000000,0.000000)
     41  O              (-1.334646,-0.000000)    (0.000000,0.000000)
     42  O              (-1.334645,-0.000000)    (0.000000,0.000000)
     43  O              (-1.337626,-0.000000)    (0.000000,0.000000)
     44  O              (-1.334645,-0.000000)    (0.000000,0.000000)
     45  O              (-1.337627,-0.000000)    (0.000000,0.000000)
     46  O              (-1.330423,-0.000000)    (0.000000,0.000000)
     47  O              (-1.343662,-0.000000)    (0.000000,0.000000)
     48  O              (-1.337629,-0.000000)    (0.000000,0.000000)
     49  O              (-1.334897,-0.000000)    (0.000000,0.000000)
     50  O              (-1.316602,-0.000000)    (0.000000,0.000000)
     51  O              (-1.317727,-0.000000)    (0.000000,0.000000)
     52  O              (-1.317726,-0.000000)    (0.000000,0.000000)
     53  O              (-1.317728,-0.000000)    (0.000000,0.000000)
     54  O              (-1.316602,-0.000000)    (0.000000,0.000000)
     55  O              (-1.317727,-0.000000)    (0.000000,0.000000)
     56  O              (-1.317728,-0.000000)    (0.000000,0.000000)
     57  O              (-1.317727,-0.000000)    (0.000000,0.000000)
     58  O              (-1.352180,-0.000000)    (0.000000,0.000000)
     59  O              (-1.352179,-0.000000)    (0.000000,0.000000)
     60  O              (-1.317727,-0.000000)    (0.000000,0.000000)
     61  O              (-1.317727,-0.000000)    (0.000000,0.000000)
     62  O              (-1.352181,-0.000000)    (0.000000,0.000000)
     63  O              (-1.352181,-0.000000)    (0.000000,0.000000)
     64  O              (-1.316602,-0.000000)    (0.000000,0.000000)
     65  O              (-1.316601,-0.000000)    (0.000000,0.000000)
     66  O               (0.021300,-0.000000)    (0.000000,0.000000)
   --------------------------------------------------------
  Sum of atomic charges =     (-0.000000,-0.000000)
  Sum of spin   charges =       (0.000000,0.000000)



 Total job time:  2134.84 s.
 Thu Aug 14 02:05:53 2025


        *************************************************************
        *                                                           *
        *  Thank you very much for using QCPBC. Have a nice day.    *
        *                                                           *
        *************************************************************

Running job 1 of 1
