                  Welcome to Q-Chem
           with Periodic Boundary Condition
     A Quantum Leap Into The Future Of Chemistry

 Adam Rettig, Xintian Feng, Meng-Fu Chen, Hieu Dinh, Stephen Quiton,
 Anton Ni, Paul J. Robinson, Jinghong Zhang, Joonho Lee

Contributors to earlier versions of Q-Chem not listed above:
 Evgeny Epifanovsky, Leo Cunha, Jerome F. Gonthier, Kuan-Yu Liu
 Input file: /n/netscratch/joonholee_lab/Lab/hieudinh//mgo_slab_def2tzvp_omega_0.4_111.scratch20250917111628/mgo_slab_def2tzvp_omega_0.4_111.0
 Scratch folder: /n/netscratch/joonholee_lab/Lab/hieudinh//mgo_slab_def2tzvp_omega_0.4_111.scratch20250917111628
 Auxillary files located at: /n/home02/hieudinh/qcpbc/qcaux
 Q-Chem begins on Wed Sep 17 11:16:29 2025

 -------------------------------------------------------------
 User input:
 -------------------------------------------------------------
 $lattice
 3
 11.9443159104 0.0000000000 0.0000000000
 0.0000000000 11.9443159104 0.0000000000
 0.0000000000 0.0000000000 21.6602222298
 $end
 
 $unitcell
 ABSOLUTE
 0 1
 C   1.4930428341    1.4930432491    5.5284856213
 Mg   0.0000000000    0.0000000000    1.0000000000
 Mg   8.9582369328    5.9721579552    1.0000000000
 Mg   2.9860789776    5.9721579552    1.0000000000
 Mg   2.9860789776    8.9582369328    1.0000000000
 Mg   5.9721579552    0.0000000000    1.0000000000
 Mg   5.9721579552    2.9860789776    1.0000000000
 Mg   5.9721579552    5.9721579552    1.0000000000
 Mg   8.9582369328    2.9860789776    1.0000000000
 Mg   5.9721579552    8.9582369328    1.0000000000
 Mg   8.9582369328    0.0000000000    1.0000000000
 Mg   2.9860789776    2.9860789776    1.0000000000
 Mg   8.9582369328    8.9582369328    1.0000000000
 Mg   0.0000000000    8.9582369328    1.0000000000
 Mg   0.0000000000    2.9860789776    1.0000000000
 Mg   0.0000000000    5.9721579552    1.0000000000
 Mg   2.9860789776    0.0000000000    1.0000000000
 Mg   1.4930343349    1.4930374153    3.1511187175
 Mg   7.4651977897   10.4517004415    3.1114386205
 Mg   7.4651969790    7.4651968898    3.1112699448
 Mg   1.4930327857    4.4811832720    3.1056362779
 Mg   7.4651966404    4.4786922443    3.1114383107
 Mg   4.4811624032    1.4930368520    3.1056318890
 Mg  10.4496839597    4.4807048989    3.1095898700
 Mg   1.4930399629    7.4651963524    3.1116080311
 Mg  10.4496925734   10.4496968378    3.1095846708
 Mg   4.4807088948   10.4496904623    3.1095885984
 Mg   4.4786954624    7.4651978298    3.1114386978
 Mg   1.4930424686   10.4492084126    3.1056383774
 Mg  10.4516980458    7.4651970662    3.1114406695
 Mg   4.4807013212    4.4807040921    3.1095854125
 Mg   7.4651986133    1.4930389816    3.1116104730
 Mg  10.4492249714    1.4930441995    3.1056280117
 O  10.4512759328    1.4930390000    1.0000000000
 O   4.4791179776   10.4512759328    1.0000000000
 O   7.4651969552    1.4930390000    1.0000000000
 O   4.4791179776    4.4791179776    1.0000000000
 O  10.4512759328    4.4791179776    1.0000000000
 O   7.4651969552    7.4651969552    1.0000000000
 O   7.4651969552   10.4512759328    1.0000000000
 O   7.4651969552    4.4791179776    1.0000000000
 O   4.4791179776    7.4651969552    1.0000000000
 O   1.4930390000   10.4512759328    1.0000000000
 O  10.4512759328    7.4651969552    1.0000000000
 O   1.4930390000    4.4791179776    1.0000000000
 O   1.4930390000    7.4651969552    1.0000000000
 O   1.4930390000    1.4930390000    1.0000000000
 O   4.4791179776    1.4930390000    1.0000000000
 O  10.4512759328   10.4512759328    1.0000000000
 O   8.9580238897    5.9723685818    3.1594644112
 O   8.9570961456    2.9857717252    3.1600752389
 O   8.9570985067    0.0003085838    3.1600738373
 O   2.9857747423    8.9570945142    3.1600737733
 O   5.9723690642    5.9723696033    3.1594610725
 O   5.9732960489    2.9857717265    3.1600713997
 O   5.9732976356    0.0003062885    3.1600713024
 O   2.9857711850    5.9732998192    3.1600740469
 O   2.9950544541    2.9950623702    3.1548459568
 O   2.9950599166   -0.0089867212    3.1548507549
 O   0.0003060319    8.9570959750    3.1600745678
 O   0.0003045736    5.9732996331    3.1600758940
 O  -0.0089879078    2.9950667318    3.1548429191
 O  -0.0089805134   -0.0089799254    3.1548482730
 O   5.9723706153    8.9580251994    3.1594625961
 O   8.9580250454    8.9580263132    3.1594616543
 O   1.4930495812    1.4930407413    6.6690780399
 $end
 
 $rem
 jobtype = sp
 method = pbe
 dft_d = 6
 scf_convergence = 5
 scf_guess = autosad
 scf_algorithm = gdm
 basis = def2-tzvp
 aux_basis = rij-def2-qzvp
 input_bohr = false
 is_basis_uctr = false
 symmetry = false
 
 mp_mesh = [1,1,1]
 
 integral_direct true
 bvk_cgto true
 symmetry false
 rsdf_print_level 1
 
 thresh 14
 mem_total 500000
 threads 32
 
 MAX_SCF_CYCLES 500
 madelung = false
 omega 0.4
 do_rij_bigmem true
 automate_g true
 print_level 10
 grid_type_xc 1
 
 thresh_1e2c_sp 1e-14
 thresh_2e3c_bra_ket_sep 1e-10
 thresh_g 1e-12
 $end
 
 $rem_autosad
 incfock 1000
 scf_algorithm gdm_ls
 $end
 
 -------------------------------------------------------------
 Running PBC job

 Requested Exchange Correlation Functionals: 
  DFT Exchange:  1.00000 pbe_x
  DFT Correlation:  1.00000 pbe_c
 using 32 threads for computing.
 ---------------------------------------------------------------
      Coordinates of Atoms in Central Unit Cell (Angstroms)
    I     Atom         X            Y            Z
 ---------------------------------------------------------------
    1       C      1.493043     1.493043     5.528486
    2      Mg      0.000000     0.000000     1.000000
    3      Mg      8.958237     5.972158     1.000000
    4      Mg      2.986079     5.972158     1.000000
    5      Mg      2.986079     8.958237     1.000000
    6      Mg      5.972158     0.000000     1.000000
    7      Mg      5.972158     2.986079     1.000000
    8      Mg      5.972158     5.972158     1.000000
    9      Mg      8.958237     2.986079     1.000000
   10      Mg      5.972158     8.958237     1.000000
   11      Mg      8.958237     0.000000     1.000000
   12      Mg      2.986079     2.986079     1.000000
   13      Mg      8.958237     8.958237     1.000000
   14      Mg      0.000000     8.958237     1.000000
   15      Mg      0.000000     2.986079     1.000000
   16      Mg      0.000000     5.972158     1.000000
   17      Mg      2.986079     0.000000     1.000000
   18      Mg      1.493034     1.493037     3.151119
   19      Mg      7.465198    10.451700     3.111439
   20      Mg      7.465197     7.465197     3.111270
   21      Mg      1.493033     4.481183     3.105636
   22      Mg      7.465197     4.478692     3.111438
   23      Mg      4.481162     1.493037     3.105632
   24      Mg     10.449684     4.480705     3.109590
   25      Mg      1.493040     7.465196     3.111608
   26      Mg     10.449693    10.449697     3.109585
   27      Mg      4.480709    10.449690     3.109589
   28      Mg      4.478695     7.465198     3.111439
   29      Mg      1.493042    10.449208     3.105638
   30      Mg     10.451698     7.465197     3.111441
   31      Mg      4.480701     4.480704     3.109585
   32      Mg      7.465199     1.493039     3.111610
   33      Mg     10.449225     1.493044     3.105628
   34       O     10.451276     1.493039     1.000000
   35       O      4.479118    10.451276     1.000000
   36       O      7.465197     1.493039     1.000000
   37       O      4.479118     4.479118     1.000000
   38       O     10.451276     4.479118     1.000000
   39       O      7.465197     7.465197     1.000000
   40       O      7.465197    10.451276     1.000000
   41       O      7.465197     4.479118     1.000000
   42       O      4.479118     7.465197     1.000000
   43       O      1.493039    10.451276     1.000000
   44       O     10.451276     7.465197     1.000000
   45       O      1.493039     4.479118     1.000000
   46       O      1.493039     7.465197     1.000000
   47       O      1.493039     1.493039     1.000000
   48       O      4.479118     1.493039     1.000000
   49       O     10.451276    10.451276     1.000000
   50       O      8.958024     5.972369     3.159464
   51       O      8.957096     2.985772     3.160075
   52       O      8.957099     0.000309     3.160074
   53       O      2.985775     8.957095     3.160074
   54       O      5.972369     5.972370     3.159461
   55       O      5.973296     2.985772     3.160071
   56       O      5.973298     0.000306     3.160071
   57       O      2.985771     5.973300     3.160074
   58       O      2.995054     2.995062     3.154846
   59       O      2.995060    -0.008987     3.154851
   60       O      0.000306     8.957096     3.160075
   61       O      0.000305     5.973300     3.160076
   62       O     -0.008988     2.995067     3.154843
   63       O     -0.008981    -0.008980     3.154848
   64       O      5.972371     8.958025     3.159463
   65       O      8.958025     8.958026     3.159462
   66       O      1.493050     1.493041     6.669078
 ---------------------------------------------------------------
 --------------------------------------------------
              Lattice Vectors (Angstroms)
              X            Y            Z
 --------------------------------------------------
   X      11.944316     0.000000     0.000000
   Y       0.000000    11.944316     0.000000
   Z       0.000000     0.000000    21.660222
 --------------------------------------------------
 --------------------------------------------------
       Reciprocal Lattice Vectors (Angstroms^-1)
              X            Y            Z
 --------------------------------------------------
   X       0.526040     0.000000     0.000000
   Y       0.000000     0.526040     0.000000
   Z       0.000000     0.000000     0.290079
 --------------------------------------------------

 Single point calculation requested

 Hamiltonian contributions:
 List of terms in Hamiltonian: kpts_nn, kpts_kinetic, kpts_vnuc_df, kpts_xc, kpts_rij_bigmem, kpts_dftd3

 K-Points calculation started.

 Basis set information about using solid harmonic (1) or Cartesian (0):
  c : D(1) D(1) F(1) 
  o : D(1) D(1) F(1) 
  mg : D(1) D(1) D(1) 

 Basis set information about using solid harmonic (1) or Cartesian (0):
  c : D(1) D(1) D(1) F(1) G(1) 
  o : D(1) D(1) D(1) F(1) G(1) 
  mg : D(1) D(1) D(1) D(1) F(1) G(1) 

 There are 2078 basis functions in the central unit cell.
 Print atomic basis of atoms in the central unit cell:
 -------------------------------------------------------------
66 1480 1480 758

  2.82144204878407e+00  2.82144283302041e+00  1.04473237081885e+01
  0.00000000000000e+00  0.00000000000000e+00  1.88972612462577e+00
  1.69286143624996e+01  1.12857429083331e+01  1.88972612462577e+00
  5.64287145416653e+00  1.12857429083331e+01  1.88972612462577e+00
  5.64287145416653e+00  1.69286143624996e+01  1.88972612462577e+00
  1.12857429083331e+01  0.00000000000000e+00  1.88972612462577e+00
  1.12857429083331e+01  5.64287145416653e+00  1.88972612462577e+00
  1.12857429083331e+01  1.12857429083331e+01  1.88972612462577e+00
  1.69286143624996e+01  5.64287145416653e+00  1.88972612462577e+00
  1.12857429083331e+01  1.69286143624996e+01  1.88972612462577e+00
  1.69286143624996e+01  0.00000000000000e+00  1.88972612462577e+00
  5.64287145416653e+00  5.64287145416653e+00  1.88972612462577e+00
  1.69286143624996e+01  1.69286143624996e+01  1.88972612462577e+00
  0.00000000000000e+00  1.69286143624996e+01  1.88972612462577e+00
  0.00000000000000e+00  5.64287145416653e+00  1.88972612462577e+00
  0.00000000000000e+00  1.12857429083331e+01  1.88972612462577e+00
  5.64287145416653e+00  0.00000000000000e+00  1.88972612462577e+00
  2.82142598762379e+00  2.82143180873615e+00  5.95475136225700e+00
  1.41071792886946e+01  1.97508513710652e+01  5.87976684632842e+00
  1.41071777566937e+01  1.41071775881301e+01  5.87944809545154e+00
  2.82142306006008e+00  8.46820909833439e+00  5.86880200793317e+00
  1.41071771168324e+01  8.46350173821253e+00  5.87976626089126e+00
  8.46816966201784e+00  2.82143074425342e+00  5.86879371411418e+00
  1.97470407727280e+01  8.46730510419000e+00  5.87627321421065e+00
  2.82143662300242e+00  1.41071765725913e+01  5.88008698596503e+00
  1.97470570502619e+01  1.97470651088100e+01  5.87626338914658e+00
  8.46731265534662e+00  1.97470530608611e+01  5.87627081123491e+00
  8.46350781954017e+00  1.41071793644727e+01  5.87976699240425e+00
  2.82144135808917e+00  1.97461421189496e+01  5.86880597541317e+00
  1.97508468438484e+01  1.41071779214778e+01  5.87977071837725e+00
  8.46729834331684e+00  8.46730357955896e+00  5.87626479075645e+00
  1.41071808450731e+01  2.82143476861417e+00  5.88009160048725e+00
  1.97461734105465e+01  2.82144462901612e+00  5.86878638707908e+00
  1.97500491658847e+01  2.82143480338514e+00  1.88972612462577e+00
  8.46430625755166e+00  1.97500491658847e+01  1.88972612462577e+00
  1.41071777117182e+01  2.82143480338514e+00  1.88972612462577e+00
  8.46430625755166e+00  8.46430625755166e+00  1.88972612462577e+00
  1.97500491658847e+01  8.46430625755166e+00  1.88972612462577e+00
  1.41071777117182e+01  1.41071777117182e+01  1.88972612462577e+00
  1.41071777117182e+01  1.97500491658847e+01  1.88972612462577e+00
  1.41071777117182e+01  8.46430625755166e+00  1.88972612462577e+00
  8.46430625755166e+00  1.41071777117182e+01  1.88972612462577e+00
  2.82143480338514e+00  1.97500491658847e+01  1.88972612462577e+00
  1.97500491658847e+01  1.41071777117182e+01  1.88972612462577e+00
  2.82143480338514e+00  8.46430625755166e+00  1.88972612462577e+00
  2.82143480338514e+00  1.41071777117182e+01  1.88972612462577e+00
  2.82143480338514e+00  2.82143480338514e+00  1.88972612462577e+00
  8.46430625755166e+00  2.82143480338514e+00  1.88972612462577e+00
  1.97500491658847e+01  1.97500491658847e+01  1.88972612462577e+00
  1.69282117693878e+01  1.12861409349216e+01  5.97052243767002e+00
  1.69264585871251e+01  5.64229083127940e+00  5.97167673473235e+00
  1.69264630489575e+01  5.83138868496294e-04  5.97167408609222e+00
  5.64229653277209e+00  1.69264555042259e+01  5.97167396514974e+00
  1.12861418465255e+01  1.12861428652769e+01  5.97051612844141e+00
  1.12878935937302e+01  5.64229083373604e+00  5.97166947969581e+00
  1.12878965921587e+01  5.78801380122440e-04  5.97166929582546e+00
  5.64228981044934e+00  1.12879007185646e+01  5.97167448217881e+00
  5.65983264658954e+00  5.65984760585052e+00  5.96179482373494e+00
  5.65984296921850e+00 -1.69824418263683e-02  5.96180389082986e+00
  5.78316476398861e-04  1.69264582647378e+01  5.97167546653715e+00
  5.75560688791319e-04  1.12879003668866e+01  5.97167797269194e+00
 -1.69846841753877e-02  5.65985584807999e+00  5.96178908331389e+00
 -1.69707107845318e-02 -1.69695996255705e-02  5.96179920071859e+00
  1.12861447776797e+01  1.69282142443622e+01  5.97051900762813e+00
  1.69282139533443e+01  1.69282163491391e+01  5.97051722788406e+00
  2.82145479895521e+00  2.82143809396524e+00  1.26027309991671e+01

  1.35753496820000e+04
  2.03523336800000e+03
  4.63225623590000e+02
  1.31200195980000e+02
  4.28530158910000e+01
  1.55841857660000e+01
  6.20671385080000e+00
  2.57648965270000e+00
  5.76963394190000e-01
  2.29728313580000e-01
  9.51644400280000e-02
  3.46972322440000e+01
  7.95826228260000e+00
  2.37808268830000e+00
  8.14332081830000e-01
  2.88875472530000e-01
  1.00568236710000e-01
  1.09700000000000e+00
  3.18000000000000e-01
  7.61000000000000e-01
  3.14383495550000e+04
  4.71551533540000e+03
  1.07316292470000e+03
  3.03572387680000e+02
  9.86262510420000e+01
  3.49438084170000e+01
  1.28597851990000e+01
  6.48769130040000e+01
  1.97255207770000e+01
  2.89518043390000e+00
  1.19604547100000e+00
  5.43294511560000e-01
  1.00991040920000e-01
  3.68657280850000e-02
  1.79871896120000e+02
  4.21200693760000e+01
  1.31205030320000e+01
  4.62575036090000e+00
  1.66952110160000e+00
  5.85510121050000e-01
  1.89147961950000e-01
  5.37687551870000e-02
  3.44400000000000e+00
  2.90000000000000e-01
  7.00000000000000e-02
  3.14383495550000e+04
  4.71551533540000e+03
  1.07316292470000e+03
  3.03572387680000e+02
  9.86262510420000e+01
  3.49438084170000e+01
  1.28597851990000e+01
  6.48769130040000e+01
  1.97255207770000e+01
  2.89518043390000e+00
  1.19604547100000e+00
  5.43294511560000e-01
  1.00991040920000e-01
  3.68657280850000e-02
  1.79871896120000e+02
  4.21200693760000e+01
  1.31205030320000e+01
  4.62575036090000e+00
  1.66952110160000e+00
  5.85510121050000e-01
  1.89147961950000e-01
  5.37687551870000e-02
  3.44400000000000e+00
  2.90000000000000e-01
  7.00000000000000e-02
  3.14383495550000e+04
  4.71551533540000e+03
  1.07316292470000e+03
  3.03572387680000e+02
  9.86262510420000e+01
  3.49438084170000e+01
  1.28597851990000e+01
  6.48769130040000e+01
  1.97255207770000e+01
  2.89518043390000e+00
  1.19604547100000e+00
  5.43294511560000e-01
  1.00991040920000e-01
  3.68657280850000e-02
  1.79871896120000e+02
  4.21200693760000e+01
  1.31205030320000e+01
  4.62575036090000e+00
  1.66952110160000e+00
  5.85510121050000e-01
  1.89147961950000e-01
  5.37687551870000e-02
  3.44400000000000e+00
  2.90000000000000e-01
  7.00000000000000e-02
  3.14383495550000e+04
  4.71551533540000e+03
  1.07316292470000e+03
  3.03572387680000e+02
  9.86262510420000e+01
  3.49438084170000e+01
  1.28597851990000e+01
  6.48769130040000e+01
  1.97255207770000e+01
  2.89518043390000e+00
  1.19604547100000e+00
  5.43294511560000e-01
  1.00991040920000e-01
  3.68657280850000e-02
  1.79871896120000e+02
  4.21200693760000e+01
  1.31205030320000e+01
  4.62575036090000e+00
  1.66952110160000e+00
  5.85510121050000e-01
  1.89147961950000e-01
  5.37687551870000e-02
  3.44400000000000e+00
  2.90000000000000e-01
  7.00000000000000e-02
  3.14383495550000e+04
  4.71551533540000e+03
  1.07316292470000e+03
  3.03572387680000e+02
  9.86262510420000e+01
  3.49438084170000e+01
  1.28597851990000e+01
  6.48769130040000e+01
  1.97255207770000e+01
  2.89518043390000e+00
  1.19604547100000e+00
  5.43294511560000e-01
  1.00991040920000e-01
  3.68657280850000e-02
  1.79871896120000e+02
  4.21200693760000e+01
  1.31205030320000e+01
  4.62575036090000e+00
  1.66952110160000e+00
  5.85510121050000e-01
  1.89147961950000e-01
  5.37687551870000e-02
  3.44400000000000e+00
  2.90000000000000e-01
  7.00000000000000e-02
  3.14383495550000e+04
  4.71551533540000e+03
  1.07316292470000e+03
  3.03572387680000e+02
  9.86262510420000e+01
  3.49438084170000e+01
  1.28597851990000e+01
  6.48769130040000e+01
  1.97255207770000e+01
  2.89518043390000e+00
  1.19604547100000e+00
  5.43294511560000e-01
  1.00991040920000e-01
  3.68657280850000e-02
  1.79871896120000e+02
  4.21200693760000e+01
  1.31205030320000e+01
  4.62575036090000e+00
  1.66952110160000e+00
  5.85510121050000e-01
  1.89147961950000e-01
  5.37687551870000e-02
  3.44400000000000e+00
  2.90000000000000e-01
  7.00000000000000e-02
  3.14383495550000e+04
  4.71551533540000e+03
  1.07316292470000e+03
  3.03572387680000e+02
  9.86262510420000e+01
  3.49438084170000e+01
  1.28597851990000e+01
  6.48769130040000e+01
  1.97255207770000e+01
  2.89518043390000e+00
  1.19604547100000e+00
  5.43294511560000e-01
  1.00991040920000e-01
  3.68657280850000e-02
  1.79871896120000e+02
  4.21200693760000e+01
  1.31205030320000e+01
  4.62575036090000e+00
  1.66952110160000e+00
  5.85510121050000e-01
  1.89147961950000e-01
  5.37687551870000e-02
  3.44400000000000e+00
  2.90000000000000e-01
  7.00000000000000e-02
  3.14383495550000e+04
  4.71551533540000e+03
  1.07316292470000e+03
  3.03572387680000e+02
  9.86262510420000e+01
  3.49438084170000e+01
  1.28597851990000e+01
  6.48769130040000e+01
  1.97255207770000e+01
  2.89518043390000e+00
  1.19604547100000e+00
  5.43294511560000e-01
  1.00991040920000e-01
  3.68657280850000e-02
  1.79871896120000e+02
  4.21200693760000e+01
  1.31205030320000e+01
  4.62575036090000e+00
  1.66952110160000e+00
  5.85510121050000e-01
  1.89147961950000e-01
  5.37687551870000e-02
  3.44400000000000e+00
  2.90000000000000e-01
  7.00000000000000e-02
  3.14383495550000e+04
  4.71551533540000e+03
  1.07316292470000e+03
  3.03572387680000e+02
  9.86262510420000e+01
  3.49438084170000e+01
  1.28597851990000e+01
  6.48769130040000e+01
  1.97255207770000e+01
  2.89518043390000e+00
  1.19604547100000e+00
  5.43294511560000e-01
  1.00991040920000e-01
  3.68657280850000e-02
  1.79871896120000e+02
  4.21200693760000e+01
  1.31205030320000e+01
  4.62575036090000e+00
  1.66952110160000e+00
  5.85510121050000e-01
  1.89147961950000e-01
  5.37687551870000e-02
  3.44400000000000e+00
  2.90000000000000e-01
  7.00000000000000e-02
  3.14383495550000e+04
  4.71551533540000e+03
  1.07316292470000e+03
  3.03572387680000e+02
  9.86262510420000e+01
  3.49438084170000e+01
  1.28597851990000e+01
  6.48769130040000e+01
  1.97255207770000e+01
  2.89518043390000e+00
  1.19604547100000e+00
  5.43294511560000e-01
  1.00991040920000e-01
  3.68657280850000e-02
  1.79871896120000e+02
  4.21200693760000e+01
  1.31205030320000e+01
  4.62575036090000e+00
  1.66952110160000e+00
  5.85510121050000e-01
  1.89147961950000e-01
  5.37687551870000e-02
  3.44400000000000e+00
  2.90000000000000e-01
  7.00000000000000e-02
  3.14383495550000e+04
  4.71551533540000e+03
  1.07316292470000e+03
  3.03572387680000e+02
  9.86262510420000e+01
  3.49438084170000e+01
  1.28597851990000e+01
  6.48769130040000e+01
  1.97255207770000e+01
  2.89518043390000e+00
  1.19604547100000e+00
  5.43294511560000e-01
  1.00991040920000e-01
  3.68657280850000e-02
  1.79871896120000e+02
  4.21200693760000e+01
  1.31205030320000e+01
  4.62575036090000e+00
  1.66952110160000e+00
  5.85510121050000e-01
  1.89147961950000e-01
  5.37687551870000e-02
  3.44400000000000e+00
  2.90000000000000e-01
  7.00000000000000e-02
  3.14383495550000e+04
  4.71551533540000e+03
  1.07316292470000e+03
  3.03572387680000e+02
  9.86262510420000e+01
  3.49438084170000e+01
  1.28597851990000e+01
  6.48769130040000e+01
  1.97255207770000e+01
  2.89518043390000e+00
  1.19604547100000e+00
  5.43294511560000e-01
  1.00991040920000e-01
  3.68657280850000e-02
  1.79871896120000e+02
  4.21200693760000e+01
  1.31205030320000e+01
  4.62575036090000e+00
  1.66952110160000e+00
  5.85510121050000e-01
  1.89147961950000e-01
  5.37687551870000e-02
  3.44400000000000e+00
  2.90000000000000e-01
  7.00000000000000e-02
  3.14383495550000e+04
  4.71551533540000e+03
  1.07316292470000e+03
  3.03572387680000e+02
  9.86262510420000e+01
  3.49438084170000e+01
  1.28597851990000e+01
  6.48769130040000e+01
  1.97255207770000e+01
  2.89518043390000e+00
  1.19604547100000e+00
  5.43294511560000e-01
  1.00991040920000e-01
  3.68657280850000e-02
  1.79871896120000e+02
  4.21200693760000e+01
  1.31205030320000e+01
  4.62575036090000e+00
  1.66952110160000e+00
  5.85510121050000e-01
  1.89147961950000e-01
  5.37687551870000e-02
  3.44400000000000e+00
  2.90000000000000e-01
  7.00000000000000e-02
  3.14383495550000e+04
  4.71551533540000e+03
  1.07316292470000e+03
  3.03572387680000e+02
  9.86262510420000e+01
  3.49438084170000e+01
  1.28597851990000e+01
  6.48769130040000e+01
  1.97255207770000e+01
  2.89518043390000e+00
  1.19604547100000e+00
  5.43294511560000e-01
  1.00991040920000e-01
  3.68657280850000e-02
  1.79871896120000e+02
  4.21200693760000e+01
  1.31205030320000e+01
  4.62575036090000e+00
  1.66952110160000e+00
  5.85510121050000e-01
  1.89147961950000e-01
  5.37687551870000e-02
  3.44400000000000e+00
  2.90000000000000e-01
  7.00000000000000e-02
  3.14383495550000e+04
  4.71551533540000e+03
  1.07316292470000e+03
  3.03572387680000e+02
  9.86262510420000e+01
  3.49438084170000e+01
  1.28597851990000e+01
  6.48769130040000e+01
  1.97255207770000e+01
  2.89518043390000e+00
  1.19604547100000e+00
  5.43294511560000e-01
  1.00991040920000e-01
  3.68657280850000e-02
  1.79871896120000e+02
  4.21200693760000e+01
  1.31205030320000e+01
  4.62575036090000e+00
  1.66952110160000e+00
  5.85510121050000e-01
  1.89147961950000e-01
  5.37687551870000e-02
  3.44400000000000e+00
  2.90000000000000e-01
  7.00000000000000e-02
  3.14383495550000e+04
  4.71551533540000e+03
  1.07316292470000e+03
  3.03572387680000e+02
  9.86262510420000e+01
  3.49438084170000e+01
  1.28597851990000e+01
  6.48769130040000e+01
  1.97255207770000e+01
  2.89518043390000e+00
  1.19604547100000e+00
  5.43294511560000e-01
  1.00991040920000e-01
  3.68657280850000e-02
  1.79871896120000e+02
  4.21200693760000e+01
  1.31205030320000e+01
  4.62575036090000e+00
  1.66952110160000e+00
  5.85510121050000e-01
  1.89147961950000e-01
  5.37687551870000e-02
  3.44400000000000e+00
  2.90000000000000e-01
  7.00000000000000e-02
  3.14383495550000e+04
  4.71551533540000e+03
  1.07316292470000e+03
  3.03572387680000e+02
  9.86262510420000e+01
  3.49438084170000e+01
  1.28597851990000e+01
  6.48769130040000e+01
  1.97255207770000e+01
  2.89518043390000e+00
  1.19604547100000e+00
  5.43294511560000e-01
  1.00991040920000e-01
  3.68657280850000e-02
  1.79871896120000e+02
  4.21200693760000e+01
  1.31205030320000e+01
  4.62575036090000e+00
  1.66952110160000e+00
  5.85510121050000e-01
  1.89147961950000e-01
  5.37687551870000e-02
  3.44400000000000e+00
  2.90000000000000e-01
  7.00000000000000e-02
  3.14383495550000e+04
  4.71551533540000e+03
  1.07316292470000e+03
  3.03572387680000e+02
  9.86262510420000e+01
  3.49438084170000e+01
  1.28597851990000e+01
  6.48769130040000e+01
  1.97255207770000e+01
  2.89518043390000e+00
  1.19604547100000e+00
  5.43294511560000e-01
  1.00991040920000e-01
  3.68657280850000e-02
  1.79871896120000e+02
  4.21200693760000e+01
  1.31205030320000e+01
  4.62575036090000e+00
  1.66952110160000e+00
  5.85510121050000e-01
  1.89147961950000e-01
  5.37687551870000e-02
  3.44400000000000e+00
  2.90000000000000e-01
  7.00000000000000e-02
  3.14383495550000e+04
  4.71551533540000e+03
  1.07316292470000e+03
  3.03572387680000e+02
  9.86262510420000e+01
  3.49438084170000e+01
  1.28597851990000e+01
  6.48769130040000e+01
  1.97255207770000e+01
  2.89518043390000e+00
  1.19604547100000e+00
  5.43294511560000e-01
  1.00991040920000e-01
  3.68657280850000e-02
  1.79871896120000e+02
  4.21200693760000e+01
  1.31205030320000e+01
  4.62575036090000e+00
  1.66952110160000e+00
  5.85510121050000e-01
  1.89147961950000e-01
  5.37687551870000e-02
  3.44400000000000e+00
  2.90000000000000e-01
  7.00000000000000e-02
  3.14383495550000e+04
  4.71551533540000e+03
  1.07316292470000e+03
  3.03572387680000e+02
  9.86262510420000e+01
  3.49438084170000e+01
  1.28597851990000e+01
  6.48769130040000e+01
  1.97255207770000e+01
  2.89518043390000e+00
  1.19604547100000e+00
  5.43294511560000e-01
  1.00991040920000e-01
  3.68657280850000e-02
  1.79871896120000e+02
  4.21200693760000e+01
  1.31205030320000e+01
  4.62575036090000e+00
  1.66952110160000e+00
  5.85510121050000e-01
  1.89147961950000e-01
  5.37687551870000e-02
  3.44400000000000e+00
  2.90000000000000e-01
  7.00000000000000e-02
  3.14383495550000e+04
  4.71551533540000e+03
  1.07316292470000e+03
  3.03572387680000e+02
  9.86262510420000e+01
  3.49438084170000e+01
  1.28597851990000e+01
  6.48769130040000e+01
  1.97255207770000e+01
  2.89518043390000e+00
  1.19604547100000e+00
  5.43294511560000e-01
  1.00991040920000e-01
  3.68657280850000e-02
  1.79871896120000e+02
  4.21200693760000e+01
  1.31205030320000e+01
  4.62575036090000e+00
  1.66952110160000e+00
  5.85510121050000e-01
  1.89147961950000e-01
  5.37687551870000e-02
  3.44400000000000e+00
  2.90000000000000e-01
  7.00000000000000e-02
  3.14383495550000e+04
  4.71551533540000e+03
  1.07316292470000e+03
  3.03572387680000e+02
  9.86262510420000e+01
  3.49438084170000e+01
  1.28597851990000e+01
  6.48769130040000e+01
  1.97255207770000e+01
  2.89518043390000e+00
  1.19604547100000e+00
  5.43294511560000e-01
  1.00991040920000e-01
  3.68657280850000e-02
  1.79871896120000e+02
  4.21200693760000e+01
  1.31205030320000e+01
  4.62575036090000e+00
  1.66952110160000e+00
  5.85510121050000e-01
  1.89147961950000e-01
  5.37687551870000e-02
  3.44400000000000e+00
  2.90000000000000e-01
  7.00000000000000e-02
  3.14383495550000e+04
  4.71551533540000e+03
  1.07316292470000e+03
  3.03572387680000e+02
  9.86262510420000e+01
  3.49438084170000e+01
  1.28597851990000e+01
  6.48769130040000e+01
  1.97255207770000e+01
  2.89518043390000e+00
  1.19604547100000e+00
  5.43294511560000e-01
  1.00991040920000e-01
  3.68657280850000e-02
  1.79871896120000e+02
  4.21200693760000e+01
  1.31205030320000e+01
  4.62575036090000e+00
  1.66952110160000e+00
  5.85510121050000e-01
  1.89147961950000e-01
  5.37687551870000e-02
  3.44400000000000e+00
  2.90000000000000e-01
  7.00000000000000e-02
  3.14383495550000e+04
  4.71551533540000e+03
  1.07316292470000e+03
  3.03572387680000e+02
  9.86262510420000e+01
  3.49438084170000e+01
  1.28597851990000e+01
  6.48769130040000e+01
  1.97255207770000e+01
  2.89518043390000e+00
  1.19604547100000e+00
  5.43294511560000e-01
  1.00991040920000e-01
  3.68657280850000e-02
  1.79871896120000e+02
  4.21200693760000e+01
  1.31205030320000e+01
  4.62575036090000e+00
  1.66952110160000e+00
  5.85510121050000e-01
  1.89147961950000e-01
  5.37687551870000e-02
  3.44400000000000e+00
  2.90000000000000e-01
  7.00000000000000e-02
  3.14383495550000e+04
  4.71551533540000e+03
  1.07316292470000e+03
  3.03572387680000e+02
  9.86262510420000e+01
  3.49438084170000e+01
  1.28597851990000e+01
  6.48769130040000e+01
  1.97255207770000e+01
  2.89518043390000e+00
  1.19604547100000e+00
  5.43294511560000e-01
  1.00991040920000e-01
  3.68657280850000e-02
  1.79871896120000e+02
  4.21200693760000e+01
  1.31205030320000e+01
  4.62575036090000e+00
  1.66952110160000e+00
  5.85510121050000e-01
  1.89147961950000e-01
  5.37687551870000e-02
  3.44400000000000e+00
  2.90000000000000e-01
  7.00000000000000e-02
  3.14383495550000e+04
  4.71551533540000e+03
  1.07316292470000e+03
  3.03572387680000e+02
  9.86262510420000e+01
  3.49438084170000e+01
  1.28597851990000e+01
  6.48769130040000e+01
  1.97255207770000e+01
  2.89518043390000e+00
  1.19604547100000e+00
  5.43294511560000e-01
  1.00991040920000e-01
  3.68657280850000e-02
  1.79871896120000e+02
  4.21200693760000e+01
  1.31205030320000e+01
  4.62575036090000e+00
  1.66952110160000e+00
  5.85510121050000e-01
  1.89147961950000e-01
  5.37687551870000e-02
  3.44400000000000e+00
  2.90000000000000e-01
  7.00000000000000e-02
  3.14383495550000e+04
  4.71551533540000e+03
  1.07316292470000e+03
  3.03572387680000e+02
  9.86262510420000e+01
  3.49438084170000e+01
  1.28597851990000e+01
  6.48769130040000e+01
  1.97255207770000e+01
  2.89518043390000e+00
  1.19604547100000e+00
  5.43294511560000e-01
  1.00991040920000e-01
  3.68657280850000e-02
  1.79871896120000e+02
  4.21200693760000e+01
  1.31205030320000e+01
  4.62575036090000e+00
  1.66952110160000e+00
  5.85510121050000e-01
  1.89147961950000e-01
  5.37687551870000e-02
  3.44400000000000e+00
  2.90000000000000e-01
  7.00000000000000e-02
  3.14383495550000e+04
  4.71551533540000e+03
  1.07316292470000e+03
  3.03572387680000e+02
  9.86262510420000e+01
  3.49438084170000e+01
  1.28597851990000e+01
  6.48769130040000e+01
  1.97255207770000e+01
  2.89518043390000e+00
  1.19604547100000e+00
  5.43294511560000e-01
  1.00991040920000e-01
  3.68657280850000e-02
  1.79871896120000e+02
  4.21200693760000e+01
  1.31205030320000e+01
  4.62575036090000e+00
  1.66952110160000e+00
  5.85510121050000e-01
  1.89147961950000e-01
  5.37687551870000e-02
  3.44400000000000e+00
  2.90000000000000e-01
  7.00000000000000e-02
  3.14383495550000e+04
  4.71551533540000e+03
  1.07316292470000e+03
  3.03572387680000e+02
  9.86262510420000e+01
  3.49438084170000e+01
  1.28597851990000e+01
  6.48769130040000e+01
  1.97255207770000e+01
  2.89518043390000e+00
  1.19604547100000e+00
  5.43294511560000e-01
  1.00991040920000e-01
  3.68657280850000e-02
  1.79871896120000e+02
  4.21200693760000e+01
  1.31205030320000e+01
  4.62575036090000e+00
  1.66952110160000e+00
  5.85510121050000e-01
  1.89147961950000e-01
  5.37687551870000e-02
  3.44400000000000e+00
  2.90000000000000e-01
  7.00000000000000e-02
  3.14383495550000e+04
  4.71551533540000e+03
  1.07316292470000e+03
  3.03572387680000e+02
  9.86262510420000e+01
  3.49438084170000e+01
  1.28597851990000e+01
  6.48769130040000e+01
  1.97255207770000e+01
  2.89518043390000e+00
  1.19604547100000e+00
  5.43294511560000e-01
  1.00991040920000e-01
  3.68657280850000e-02
  1.79871896120000e+02
  4.21200693760000e+01
  1.31205030320000e+01
  4.62575036090000e+00
  1.66952110160000e+00
  5.85510121050000e-01
  1.89147961950000e-01
  5.37687551870000e-02
  3.44400000000000e+00
  2.90000000000000e-01
  7.00000000000000e-02
  3.14383495550000e+04
  4.71551533540000e+03
  1.07316292470000e+03
  3.03572387680000e+02
  9.86262510420000e+01
  3.49438084170000e+01
  1.28597851990000e+01
  6.48769130040000e+01
  1.97255207770000e+01
  2.89518043390000e+00
  1.19604547100000e+00
  5.43294511560000e-01
  1.00991040920000e-01
  3.68657280850000e-02
  1.79871896120000e+02
  4.21200693760000e+01
  1.31205030320000e+01
  4.62575036090000e+00
  1.66952110160000e+00
  5.85510121050000e-01
  1.89147961950000e-01
  5.37687551870000e-02
  3.44400000000000e+00
  2.90000000000000e-01
  7.00000000000000e-02
  3.14383495550000e+04
  4.71551533540000e+03
  1.07316292470000e+03
  3.03572387680000e+02
  9.86262510420000e+01
  3.49438084170000e+01
  1.28597851990000e+01
  6.48769130040000e+01
  1.97255207770000e+01
  2.89518043390000e+00
  1.19604547100000e+00
  5.43294511560000e-01
  1.00991040920000e-01
  3.68657280850000e-02
  1.79871896120000e+02
  4.21200693760000e+01
  1.31205030320000e+01
  4.62575036090000e+00
  1.66952110160000e+00
  5.85510121050000e-01
  1.89147961950000e-01
  5.37687551870000e-02
  3.44400000000000e+00
  2.90000000000000e-01
  7.00000000000000e-02
  2.70323826310000e+04
  4.05238713920000e+03
  9.22327227100000e+02
  2.61240709890000e+02
  8.53546413510000e+01
  3.10350352450000e+01
  1.22608607280000e+01
  4.99870760050000e+00
  1.17031081580000e+00
  4.64747409940000e-01
  1.85045363570000e-01
  6.32749548010000e+01
  1.46270493790000e+01
  4.45012234560000e+00
  1.52757996470000e+00
  5.29351179430000e-01
  1.74784212700000e-01
  2.31400000000000e+00
  6.45000000000000e-01
  1.42800000000000e+00
  2.70323826310000e+04
  4.05238713920000e+03
  9.22327227100000e+02
  2.61240709890000e+02
  8.53546413510000e+01
  3.10350352450000e+01
  1.22608607280000e+01
  4.99870760050000e+00
  1.17031081580000e+00
  4.64747409940000e-01
  1.85045363570000e-01
  6.32749548010000e+01
  1.46270493790000e+01
  4.45012234560000e+00
  1.52757996470000e+00
  5.29351179430000e-01
  1.74784212700000e-01
  2.31400000000000e+00
  6.45000000000000e-01
  1.42800000000000e+00
  2.70323826310000e+04
  4.05238713920000e+03
  9.22327227100000e+02
  2.61240709890000e+02
  8.53546413510000e+01
  3.10350352450000e+01
  1.22608607280000e+01
  4.99870760050000e+00
  1.17031081580000e+00
  4.64747409940000e-01
  1.85045363570000e-01
  6.32749548010000e+01
  1.46270493790000e+01
  4.45012234560000e+00
  1.52757996470000e+00
  5.29351179430000e-01
  1.74784212700000e-01
  2.31400000000000e+00
  6.45000000000000e-01
  1.42800000000000e+00
  2.70323826310000e+04
  4.05238713920000e+03
  9.22327227100000e+02
  2.61240709890000e+02
  8.53546413510000e+01
  3.10350352450000e+01
  1.22608607280000e+01
  4.99870760050000e+00
  1.17031081580000e+00
  4.64747409940000e-01
  1.85045363570000e-01
  6.32749548010000e+01
  1.46270493790000e+01
  4.45012234560000e+00
  1.52757996470000e+00
  5.29351179430000e-01
  1.74784212700000e-01
  2.31400000000000e+00
  6.45000000000000e-01
  1.42800000000000e+00
  2.70323826310000e+04
  4.05238713920000e+03
  9.22327227100000e+02
  2.61240709890000e+02
  8.53546413510000e+01
  3.10350352450000e+01
  1.22608607280000e+01
  4.99870760050000e+00
  1.17031081580000e+00
  4.64747409940000e-01
  1.85045363570000e-01
  6.32749548010000e+01
  1.46270493790000e+01
  4.45012234560000e+00
  1.52757996470000e+00
  5.29351179430000e-01
  1.74784212700000e-01
  2.31400000000000e+00
  6.45000000000000e-01
  1.42800000000000e+00
  2.70323826310000e+04
  4.05238713920000e+03
  9.22327227100000e+02
  2.61240709890000e+02
  8.53546413510000e+01
  3.10350352450000e+01
  1.22608607280000e+01
  4.99870760050000e+00
  1.17031081580000e+00
  4.64747409940000e-01
  1.85045363570000e-01
  6.32749548010000e+01
  1.46270493790000e+01
  4.45012234560000e+00
  1.52757996470000e+00
  5.29351179430000e-01
  1.74784212700000e-01
  2.31400000000000e+00
  6.45000000000000e-01
  1.42800000000000e+00
  2.70323826310000e+04
  4.05238713920000e+03
  9.22327227100000e+02
  2.61240709890000e+02
  8.53546413510000e+01
  3.10350352450000e+01
  1.22608607280000e+01
  4.99870760050000e+00
  1.17031081580000e+00
  4.64747409940000e-01
  1.85045363570000e-01
  6.32749548010000e+01
  1.46270493790000e+01
  4.45012234560000e+00
  1.52757996470000e+00
  5.29351179430000e-01
  1.74784212700000e-01
  2.31400000000000e+00
  6.45000000000000e-01
  1.42800000000000e+00
  2.70323826310000e+04
  4.05238713920000e+03
  9.22327227100000e+02
  2.61240709890000e+02
  8.53546413510000e+01
  3.10350352450000e+01
  1.22608607280000e+01
  4.99870760050000e+00
  1.17031081580000e+00
  4.64747409940000e-01
  1.85045363570000e-01
  6.32749548010000e+01
  1.46270493790000e+01
  4.45012234560000e+00
  1.52757996470000e+00
  5.29351179430000e-01
  1.74784212700000e-01
  2.31400000000000e+00
  6.45000000000000e-01
  1.42800000000000e+00
  2.70323826310000e+04
  4.05238713920000e+03
  9.22327227100000e+02
  2.61240709890000e+02
  8.53546413510000e+01
  3.10350352450000e+01
  1.22608607280000e+01
  4.99870760050000e+00
  1.17031081580000e+00
  4.64747409940000e-01
  1.85045363570000e-01
  6.32749548010000e+01
  1.46270493790000e+01
  4.45012234560000e+00
  1.52757996470000e+00
  5.29351179430000e-01
  1.74784212700000e-01
  2.31400000000000e+00
  6.45000000000000e-01
  1.42800000000000e+00
  2.70323826310000e+04
  4.05238713920000e+03
  9.22327227100000e+02
  2.61240709890000e+02
  8.53546413510000e+01
  3.10350352450000e+01
  1.22608607280000e+01
  4.99870760050000e+00
  1.17031081580000e+00
  4.64747409940000e-01
  1.85045363570000e-01
  6.32749548010000e+01
  1.46270493790000e+01
  4.45012234560000e+00
  1.52757996470000e+00
  5.29351179430000e-01
  1.74784212700000e-01
  2.31400000000000e+00
  6.45000000000000e-01
  1.42800000000000e+00
  2.70323826310000e+04
  4.05238713920000e+03
  9.22327227100000e+02
  2.61240709890000e+02
  8.53546413510000e+01
  3.10350352450000e+01
  1.22608607280000e+01
  4.99870760050000e+00
  1.17031081580000e+00
  4.64747409940000e-01
  1.85045363570000e-01
  6.32749548010000e+01
  1.46270493790000e+01
  4.45012234560000e+00
  1.52757996470000e+00
  5.29351179430000e-01
  1.74784212700000e-01
  2.31400000000000e+00
  6.45000000000000e-01
  1.42800000000000e+00
  2.70323826310000e+04
  4.05238713920000e+03
  9.22327227100000e+02
  2.61240709890000e+02
  8.53546413510000e+01
  3.10350352450000e+01
  1.22608607280000e+01
  4.99870760050000e+00
  1.17031081580000e+00
  4.64747409940000e-01
  1.85045363570000e-01
  6.32749548010000e+01
  1.46270493790000e+01
  4.45012234560000e+00
  1.52757996470000e+00
  5.29351179430000e-01
  1.74784212700000e-01
  2.31400000000000e+00
  6.45000000000000e-01
  1.42800000000000e+00
  2.70323826310000e+04
  4.05238713920000e+03
  9.22327227100000e+02
  2.61240709890000e+02
  8.53546413510000e+01
  3.10350352450000e+01
  1.22608607280000e+01
  4.99870760050000e+00
  1.17031081580000e+00
  4.64747409940000e-01
  1.85045363570000e-01
  6.32749548010000e+01
  1.46270493790000e+01
  4.45012234560000e+00
  1.52757996470000e+00
  5.29351179430000e-01
  1.74784212700000e-01
  2.31400000000000e+00
  6.45000000000000e-01
  1.42800000000000e+00
  2.70323826310000e+04
  4.05238713920000e+03
  9.22327227100000e+02
  2.61240709890000e+02
  8.53546413510000e+01
  3.10350352450000e+01
  1.22608607280000e+01
  4.99870760050000e+00
  1.17031081580000e+00
  4.64747409940000e-01
  1.85045363570000e-01
  6.32749548010000e+01
  1.46270493790000e+01
  4.45012234560000e+00
  1.52757996470000e+00
  5.29351179430000e-01
  1.74784212700000e-01
  2.31400000000000e+00
  6.45000000000000e-01
  1.42800000000000e+00
  2.70323826310000e+04
  4.05238713920000e+03
  9.22327227100000e+02
  2.61240709890000e+02
  8.53546413510000e+01
  3.10350352450000e+01
  1.22608607280000e+01
  4.99870760050000e+00
  1.17031081580000e+00
  4.64747409940000e-01
  1.85045363570000e-01
  6.32749548010000e+01
  1.46270493790000e+01
  4.45012234560000e+00
  1.52757996470000e+00
  5.29351179430000e-01
  1.74784212700000e-01
  2.31400000000000e+00
  6.45000000000000e-01
  1.42800000000000e+00
  2.70323826310000e+04
  4.05238713920000e+03
  9.22327227100000e+02
  2.61240709890000e+02
  8.53546413510000e+01
  3.10350352450000e+01
  1.22608607280000e+01
  4.99870760050000e+00
  1.17031081580000e+00
  4.64747409940000e-01
  1.85045363570000e-01
  6.32749548010000e+01
  1.46270493790000e+01
  4.45012234560000e+00
  1.52757996470000e+00
  5.29351179430000e-01
  1.74784212700000e-01
  2.31400000000000e+00
  6.45000000000000e-01
  1.42800000000000e+00
  2.70323826310000e+04
  4.05238713920000e+03
  9.22327227100000e+02
  2.61240709890000e+02
  8.53546413510000e+01
  3.10350352450000e+01
  1.22608607280000e+01
  4.99870760050000e+00
  1.17031081580000e+00
  4.64747409940000e-01
  1.85045363570000e-01
  6.32749548010000e+01
  1.46270493790000e+01
  4.45012234560000e+00
  1.52757996470000e+00
  5.29351179430000e-01
  1.74784212700000e-01
  2.31400000000000e+00
  6.45000000000000e-01
  1.42800000000000e+00
  2.70323826310000e+04
  4.05238713920000e+03
  9.22327227100000e+02
  2.61240709890000e+02
  8.53546413510000e+01
  3.10350352450000e+01
  1.22608607280000e+01
  4.99870760050000e+00
  1.17031081580000e+00
  4.64747409940000e-01
  1.85045363570000e-01
  6.32749548010000e+01
  1.46270493790000e+01
  4.45012234560000e+00
  1.52757996470000e+00
  5.29351179430000e-01
  1.74784212700000e-01
  2.31400000000000e+00
  6.45000000000000e-01
  1.42800000000000e+00
  2.70323826310000e+04
  4.05238713920000e+03
  9.22327227100000e+02
  2.61240709890000e+02
  8.53546413510000e+01
  3.10350352450000e+01
  1.22608607280000e+01
  4.99870760050000e+00
  1.17031081580000e+00
  4.64747409940000e-01
  1.85045363570000e-01
  6.32749548010000e+01
  1.46270493790000e+01
  4.45012234560000e+00
  1.52757996470000e+00
  5.29351179430000e-01
  1.74784212700000e-01
  2.31400000000000e+00
  6.45000000000000e-01
  1.42800000000000e+00
  2.70323826310000e+04
  4.05238713920000e+03
  9.22327227100000e+02
  2.61240709890000e+02
  8.53546413510000e+01
  3.10350352450000e+01
  1.22608607280000e+01
  4.99870760050000e+00
  1.17031081580000e+00
  4.64747409940000e-01
  1.85045363570000e-01
  6.32749548010000e+01
  1.46270493790000e+01
  4.45012234560000e+00
  1.52757996470000e+00
  5.29351179430000e-01
  1.74784212700000e-01
  2.31400000000000e+00
  6.45000000000000e-01
  1.42800000000000e+00
  2.70323826310000e+04
  4.05238713920000e+03
  9.22327227100000e+02
  2.61240709890000e+02
  8.53546413510000e+01
  3.10350352450000e+01
  1.22608607280000e+01
  4.99870760050000e+00
  1.17031081580000e+00
  4.64747409940000e-01
  1.85045363570000e-01
  6.32749548010000e+01
  1.46270493790000e+01
  4.45012234560000e+00
  1.52757996470000e+00
  5.29351179430000e-01
  1.74784212700000e-01
  2.31400000000000e+00
  6.45000000000000e-01
  1.42800000000000e+00
  2.70323826310000e+04
  4.05238713920000e+03
  9.22327227100000e+02
  2.61240709890000e+02
  8.53546413510000e+01
  3.10350352450000e+01
  1.22608607280000e+01
  4.99870760050000e+00
  1.17031081580000e+00
  4.64747409940000e-01
  1.85045363570000e-01
  6.32749548010000e+01
  1.46270493790000e+01
  4.45012234560000e+00
  1.52757996470000e+00
  5.29351179430000e-01
  1.74784212700000e-01
  2.31400000000000e+00
  6.45000000000000e-01
  1.42800000000000e+00
  2.70323826310000e+04
  4.05238713920000e+03
  9.22327227100000e+02
  2.61240709890000e+02
  8.53546413510000e+01
  3.10350352450000e+01
  1.22608607280000e+01
  4.99870760050000e+00
  1.17031081580000e+00
  4.64747409940000e-01
  1.85045363570000e-01
  6.32749548010000e+01
  1.46270493790000e+01
  4.45012234560000e+00
  1.52757996470000e+00
  5.29351179430000e-01
  1.74784212700000e-01
  2.31400000000000e+00
  6.45000000000000e-01
  1.42800000000000e+00
  2.70323826310000e+04
  4.05238713920000e+03
  9.22327227100000e+02
  2.61240709890000e+02
  8.53546413510000e+01
  3.10350352450000e+01
  1.22608607280000e+01
  4.99870760050000e+00
  1.17031081580000e+00
  4.64747409940000e-01
  1.85045363570000e-01
  6.32749548010000e+01
  1.46270493790000e+01
  4.45012234560000e+00
  1.52757996470000e+00
  5.29351179430000e-01
  1.74784212700000e-01
  2.31400000000000e+00
  6.45000000000000e-01
  1.42800000000000e+00
  2.70323826310000e+04
  4.05238713920000e+03
  9.22327227100000e+02
  2.61240709890000e+02
  8.53546413510000e+01
  3.10350352450000e+01
  1.22608607280000e+01
  4.99870760050000e+00
  1.17031081580000e+00
  4.64747409940000e-01
  1.85045363570000e-01
  6.32749548010000e+01
  1.46270493790000e+01
  4.45012234560000e+00
  1.52757996470000e+00
  5.29351179430000e-01
  1.74784212700000e-01
  2.31400000000000e+00
  6.45000000000000e-01
  1.42800000000000e+00
  2.70323826310000e+04
  4.05238713920000e+03
  9.22327227100000e+02
  2.61240709890000e+02
  8.53546413510000e+01
  3.10350352450000e+01
  1.22608607280000e+01
  4.99870760050000e+00
  1.17031081580000e+00
  4.64747409940000e-01
  1.85045363570000e-01
  6.32749548010000e+01
  1.46270493790000e+01
  4.45012234560000e+00
  1.52757996470000e+00
  5.29351179430000e-01
  1.74784212700000e-01
  2.31400000000000e+00
  6.45000000000000e-01
  1.42800000000000e+00
  2.70323826310000e+04
  4.05238713920000e+03
  9.22327227100000e+02
  2.61240709890000e+02
  8.53546413510000e+01
  3.10350352450000e+01
  1.22608607280000e+01
  4.99870760050000e+00
  1.17031081580000e+00
  4.64747409940000e-01
  1.85045363570000e-01
  6.32749548010000e+01
  1.46270493790000e+01
  4.45012234560000e+00
  1.52757996470000e+00
  5.29351179430000e-01
  1.74784212700000e-01
  2.31400000000000e+00
  6.45000000000000e-01
  1.42800000000000e+00
  2.70323826310000e+04
  4.05238713920000e+03
  9.22327227100000e+02
  2.61240709890000e+02
  8.53546413510000e+01
  3.10350352450000e+01
  1.22608607280000e+01
  4.99870760050000e+00
  1.17031081580000e+00
  4.64747409940000e-01
  1.85045363570000e-01
  6.32749548010000e+01
  1.46270493790000e+01
  4.45012234560000e+00
  1.52757996470000e+00
  5.29351179430000e-01
  1.74784212700000e-01
  2.31400000000000e+00
  6.45000000000000e-01
  1.42800000000000e+00
  2.70323826310000e+04
  4.05238713920000e+03
  9.22327227100000e+02
  2.61240709890000e+02
  8.53546413510000e+01
  3.10350352450000e+01
  1.22608607280000e+01
  4.99870760050000e+00
  1.17031081580000e+00
  4.64747409940000e-01
  1.85045363570000e-01
  6.32749548010000e+01
  1.46270493790000e+01
  4.45012234560000e+00
  1.52757996470000e+00
  5.29351179430000e-01
  1.74784212700000e-01
  2.31400000000000e+00
  6.45000000000000e-01
  1.42800000000000e+00
  2.70323826310000e+04
  4.05238713920000e+03
  9.22327227100000e+02
  2.61240709890000e+02
  8.53546413510000e+01
  3.10350352450000e+01
  1.22608607280000e+01
  4.99870760050000e+00
  1.17031081580000e+00
  4.64747409940000e-01
  1.85045363570000e-01
  6.32749548010000e+01
  1.46270493790000e+01
  4.45012234560000e+00
  1.52757996470000e+00
  5.29351179430000e-01
  1.74784212700000e-01
  2.31400000000000e+00
  6.45000000000000e-01
  1.42800000000000e+00
  2.70323826310000e+04
  4.05238713920000e+03
  9.22327227100000e+02
  2.61240709890000e+02
  8.53546413510000e+01
  3.10350352450000e+01
  1.22608607280000e+01
  4.99870760050000e+00
  1.17031081580000e+00
  4.64747409940000e-01
  1.85045363570000e-01
  6.32749548010000e+01
  1.46270493790000e+01
  4.45012234560000e+00
  1.52757996470000e+00
  5.29351179430000e-01
  1.74784212700000e-01
  2.31400000000000e+00
  6.45000000000000e-01
  1.42800000000000e+00
  2.70323826310000e+04
  4.05238713920000e+03
  9.22327227100000e+02
  2.61240709890000e+02
  8.53546413510000e+01
  3.10350352450000e+01
  1.22608607280000e+01
  4.99870760050000e+00
  1.17031081580000e+00
  4.64747409940000e-01
  1.85045363570000e-01
  6.32749548010000e+01
  1.46270493790000e+01
  4.45012234560000e+00
  1.52757996470000e+00
  5.29351179430000e-01
  1.74784212700000e-01
  2.31400000000000e+00
  6.45000000000000e-01
  1.42800000000000e+00
  2.70323826310000e+04
  4.05238713920000e+03
  9.22327227100000e+02
  2.61240709890000e+02
  8.53546413510000e+01
  3.10350352450000e+01
  1.22608607280000e+01
  4.99870760050000e+00
  1.17031081580000e+00
  4.64747409940000e-01
  1.85045363570000e-01
  6.32749548010000e+01
  1.46270493790000e+01
  4.45012234560000e+00
  1.52757996470000e+00
  5.29351179430000e-01
  1.74784212700000e-01
  2.31400000000000e+00
  6.45000000000000e-01
  1.42800000000000e+00

  5.43590637341640e-01
  1.01455440957678e+00
  1.73157320313973e+00
  2.69103762923255e+00
  3.60445471307904e+00
  3.70255569805205e+00
  1.83835408314535e+00
  5.44757560454096e-01
  4.71814503811503e-01
  2.36494467595494e-01
  1.22114184794684e-01
  1.35966514595563e+00
  1.45125894851184e+00
  1.27092314192642e+00
  8.02572118948022e-01
  3.01875886874207e-01
  8.07265016506241e-02
  1.93540141597197e+00
  2.21644478159161e-01
  7.96287553418135e-01
  9.73106087343933e-01
  1.81224237364027e+00
  3.06211587998873e+00
  4.60751974293548e+00
  5.64285406447072e+00
  4.65737548687379e+00
  1.54844590126125e+00
  8.85003440430803e-01
  1.71754964781258e+00
 -1.77240444183369e+00
  6.34755069264484e-01
  1.08825269910943e-01
  1.27679810259400e-01
  5.99621510139067e-02
  5.83395367839964e+00
  6.94517385554491e+00
  6.47033263889273e+00
  4.01128311017259e+00
  1.42249246390442e+00
  7.30059230239136e-01
  1.77804263529115e-01
  3.69064748804282e-02
  1.43307841944265e+01
  1.88627909885626e-01
  1.56794572814139e-02
  9.73106087343933e-01
  1.81224237364027e+00
  3.06211587998873e+00
  4.60751974293548e+00
  5.64285406447072e+00
  4.65737548687379e+00
  1.54844590126125e+00
  8.85003440430803e-01
  1.71754964781258e+00
 -1.77240444183369e+00
  6.34755069264484e-01
  1.08825269910943e-01
  1.27679810259400e-01
  5.99621510139067e-02
  5.83395367839964e+00
  6.94517385554491e+00
  6.47033263889273e+00
  4.01128311017259e+00
  1.42249246390442e+00
  7.30059230239136e-01
  1.77804263529115e-01
  3.69064748804282e-02
  1.43307841944265e+01
  1.88627909885626e-01
  1.56794572814139e-02
  9.73106087343933e-01
  1.81224237364027e+00
  3.06211587998873e+00
  4.60751974293548e+00
  5.64285406447072e+00
  4.65737548687379e+00
  1.54844590126125e+00
  8.85003440430803e-01
  1.71754964781258e+00
 -1.77240444183369e+00
  6.34755069264484e-01
  1.08825269910943e-01
  1.27679810259400e-01
  5.99621510139067e-02
  5.83395367839964e+00
  6.94517385554491e+00
  6.47033263889273e+00
  4.01128311017259e+00
  1.42249246390442e+00
  7.30059230239136e-01
  1.77804263529115e-01
  3.69064748804282e-02
  1.43307841944265e+01
  1.88627909885626e-01
  1.56794572814139e-02
  9.73106087343933e-01
  1.81224237364027e+00
  3.06211587998873e+00
  4.60751974293548e+00
  5.64285406447072e+00
  4.65737548687379e+00
  1.54844590126125e+00
  8.85003440430803e-01
  1.71754964781258e+00
 -1.77240444183369e+00
  6.34755069264484e-01
  1.08825269910943e-01
  1.27679810259400e-01
  5.99621510139067e-02
  5.83395367839964e+00
  6.94517385554491e+00
  6.47033263889273e+00
  4.01128311017259e+00
  1.42249246390442e+00
  7.30059230239136e-01
  1.77804263529115e-01
  3.69064748804282e-02
  1.43307841944265e+01
  1.88627909885626e-01
  1.56794572814139e-02
  9.73106087343933e-01
  1.81224237364027e+00
  3.06211587998873e+00
  4.60751974293548e+00
  5.64285406447072e+00
  4.65737548687379e+00
  1.54844590126125e+00
  8.85003440430803e-01
  1.71754964781258e+00
 -1.77240444183369e+00
  6.34755069264484e-01
  1.08825269910943e-01
  1.27679810259400e-01
  5.99621510139067e-02
  5.83395367839964e+00
  6.94517385554491e+00
  6.47033263889273e+00
  4.01128311017259e+00
  1.42249246390442e+00
  7.30059230239136e-01
  1.77804263529115e-01
  3.69064748804282e-02
  1.43307841944265e+01
  1.88627909885626e-01
  1.56794572814139e-02
  9.73106087343933e-01
  1.81224237364027e+00
  3.06211587998873e+00
  4.60751974293548e+00
  5.64285406447072e+00
  4.65737548687379e+00
  1.54844590126125e+00
  8.85003440430803e-01
  1.71754964781258e+00
 -1.77240444183369e+00
  6.34755069264484e-01
  1.08825269910943e-01
  1.27679810259400e-01
  5.99621510139067e-02
  5.83395367839964e+00
  6.94517385554491e+00
  6.47033263889273e+00
  4.01128311017259e+00
  1.42249246390442e+00
  7.30059230239136e-01
  1.77804263529115e-01
  3.69064748804282e-02
  1.43307841944265e+01
  1.88627909885626e-01
  1.56794572814139e-02
  9.73106087343933e-01
  1.81224237364027e+00
  3.06211587998873e+00
  4.60751974293548e+00
  5.64285406447072e+00
  4.65737548687379e+00
  1.54844590126125e+00
  8.85003440430803e-01
  1.71754964781258e+00
 -1.77240444183369e+00
  6.34755069264484e-01
  1.08825269910943e-01
  1.27679810259400e-01
  5.99621510139067e-02
  5.83395367839964e+00
  6.94517385554491e+00
  6.47033263889273e+00
  4.01128311017259e+00
  1.42249246390442e+00
  7.30059230239136e-01
  1.77804263529115e-01
  3.69064748804282e-02
  1.43307841944265e+01
  1.88627909885626e-01
  1.56794572814139e-02
  9.73106087343933e-01
  1.81224237364027e+00
  3.06211587998873e+00
  4.60751974293548e+00
  5.64285406447072e+00
  4.65737548687379e+00
  1.54844590126125e+00
  8.85003440430803e-01
  1.71754964781258e+00
 -1.77240444183369e+00
  6.34755069264484e-01
  1.08825269910943e-01
  1.27679810259400e-01
  5.99621510139067e-02
  5.83395367839964e+00
  6.94517385554491e+00
  6.47033263889273e+00
  4.01128311017259e+00
  1.42249246390442e+00
  7.30059230239136e-01
  1.77804263529115e-01
  3.69064748804282e-02
  1.43307841944265e+01
  1.88627909885626e-01
  1.56794572814139e-02
  9.73106087343933e-01
  1.81224237364027e+00
  3.06211587998873e+00
  4.60751974293548e+00
  5.64285406447072e+00
  4.65737548687379e+00
  1.54844590126125e+00
  8.85003440430803e-01
  1.71754964781258e+00
 -1.77240444183369e+00
  6.34755069264484e-01
  1.08825269910943e-01
  1.27679810259400e-01
  5.99621510139067e-02
  5.83395367839964e+00
  6.94517385554491e+00
  6.47033263889273e+00
  4.01128311017259e+00
  1.42249246390442e+00
  7.30059230239136e-01
  1.77804263529115e-01
  3.69064748804282e-02
  1.43307841944265e+01
  1.88627909885626e-01
  1.56794572814139e-02
  9.73106087343933e-01
  1.81224237364027e+00
  3.06211587998873e+00
  4.60751974293548e+00
  5.64285406447072e+00
  4.65737548687379e+00
  1.54844590126125e+00
  8.85003440430803e-01
  1.71754964781258e+00
 -1.77240444183369e+00
  6.34755069264484e-01
  1.08825269910943e-01
  1.27679810259400e-01
  5.99621510139067e-02
  5.83395367839964e+00
  6.94517385554491e+00
  6.47033263889273e+00
  4.01128311017259e+00
  1.42249246390442e+00
  7.30059230239136e-01
  1.77804263529115e-01
  3.69064748804282e-02
  1.43307841944265e+01
  1.88627909885626e-01
  1.56794572814139e-02
  9.73106087343933e-01
  1.81224237364027e+00
  3.06211587998873e+00
  4.60751974293548e+00
  5.64285406447072e+00
  4.65737548687379e+00
  1.54844590126125e+00
  8.85003440430803e-01
  1.71754964781258e+00
 -1.77240444183369e+00
  6.34755069264484e-01
  1.08825269910943e-01
  1.27679810259400e-01
  5.99621510139067e-02
  5.83395367839964e+00
  6.94517385554491e+00
  6.47033263889273e+00
  4.01128311017259e+00
  1.42249246390442e+00
  7.30059230239136e-01
  1.77804263529115e-01
  3.69064748804282e-02
  1.43307841944265e+01
  1.88627909885626e-01
  1.56794572814139e-02
  9.73106087343933e-01
  1.81224237364027e+00
  3.06211587998873e+00
  4.60751974293548e+00
  5.64285406447072e+00
  4.65737548687379e+00
  1.54844590126125e+00
  8.85003440430803e-01
  1.71754964781258e+00
 -1.77240444183369e+00
  6.34755069264484e-01
  1.08825269910943e-01
  1.27679810259400e-01
  5.99621510139067e-02
  5.83395367839964e+00
  6.94517385554491e+00
  6.47033263889273e+00
  4.01128311017259e+00
  1.42249246390442e+00
  7.30059230239136e-01
  1.77804263529115e-01
  3.69064748804282e-02
  1.43307841944265e+01
  1.88627909885626e-01
  1.56794572814139e-02
  9.73106087343933e-01
  1.81224237364027e+00
  3.06211587998873e+00
  4.60751974293548e+00
  5.64285406447072e+00
  4.65737548687379e+00
  1.54844590126125e+00
  8.85003440430803e-01
  1.71754964781258e+00
 -1.77240444183369e+00
  6.34755069264484e-01
  1.08825269910943e-01
  1.27679810259400e-01
  5.99621510139067e-02
  5.83395367839964e+00
  6.94517385554491e+00
  6.47033263889273e+00
  4.01128311017259e+00
  1.42249246390442e+00
  7.30059230239136e-01
  1.77804263529115e-01
  3.69064748804282e-02
  1.43307841944265e+01
  1.88627909885626e-01
  1.56794572814139e-02
  9.73106087343933e-01
  1.81224237364027e+00
  3.06211587998873e+00
  4.60751974293548e+00
  5.64285406447072e+00
  4.65737548687379e+00
  1.54844590126125e+00
  8.85003440430803e-01
  1.71754964781258e+00
 -1.77240444183369e+00
  6.34755069264484e-01
  1.08825269910943e-01
  1.27679810259400e-01
  5.99621510139067e-02
  5.83395367839964e+00
  6.94517385554491e+00
  6.47033263889273e+00
  4.01128311017259e+00
  1.42249246390442e+00
  7.30059230239136e-01
  1.77804263529115e-01
  3.69064748804282e-02
  1.43307841944265e+01
  1.88627909885626e-01
  1.56794572814139e-02
  9.73106087343933e-01
  1.81224237364027e+00
  3.06211587998873e+00
  4.60751974293548e+00
  5.64285406447072e+00
  4.65737548687379e+00
  1.54844590126125e+00
  8.85003440430803e-01
  1.71754964781258e+00
 -1.77240444183369e+00
  6.34755069264484e-01
  1.08825269910943e-01
  1.27679810259400e-01
  5.99621510139067e-02
  5.83395367839964e+00
  6.94517385554491e+00
  6.47033263889273e+00
  4.01128311017259e+00
  1.42249246390442e+00
  7.30059230239136e-01
  1.77804263529115e-01
  3.69064748804282e-02
  1.43307841944265e+01
  1.88627909885626e-01
  1.56794572814139e-02
  9.73106087343933e-01
  1.81224237364027e+00
  3.06211587998873e+00
  4.60751974293548e+00
  5.64285406447072e+00
  4.65737548687379e+00
  1.54844590126125e+00
  8.85003440430803e-01
  1.71754964781258e+00
 -1.77240444183369e+00
  6.34755069264484e-01
  1.08825269910943e-01
  1.27679810259400e-01
  5.99621510139067e-02
  5.83395367839964e+00
  6.94517385554491e+00
  6.47033263889273e+00
  4.01128311017259e+00
  1.42249246390442e+00
  7.30059230239136e-01
  1.77804263529115e-01
  3.69064748804282e-02
  1.43307841944265e+01
  1.88627909885626e-01
  1.56794572814139e-02
  9.73106087343933e-01
  1.81224237364027e+00
  3.06211587998873e+00
  4.60751974293548e+00
  5.64285406447072e+00
  4.65737548687379e+00
  1.54844590126125e+00
  8.85003440430803e-01
  1.71754964781258e+00
 -1.77240444183369e+00
  6.34755069264484e-01
  1.08825269910943e-01
  1.27679810259400e-01
  5.99621510139067e-02
  5.83395367839964e+00
  6.94517385554491e+00
  6.47033263889273e+00
  4.01128311017259e+00
  1.42249246390442e+00
  7.30059230239136e-01
  1.77804263529115e-01
  3.69064748804282e-02
  1.43307841944265e+01
  1.88627909885626e-01
  1.56794572814139e-02
  9.73106087343933e-01
  1.81224237364027e+00
  3.06211587998873e+00
  4.60751974293548e+00
  5.64285406447072e+00
  4.65737548687379e+00
  1.54844590126125e+00
  8.85003440430803e-01
  1.71754964781258e+00
 -1.77240444183369e+00
  6.34755069264484e-01
  1.08825269910943e-01
  1.27679810259400e-01
  5.99621510139067e-02
  5.83395367839964e+00
  6.94517385554491e+00
  6.47033263889273e+00
  4.01128311017259e+00
  1.42249246390442e+00
  7.30059230239136e-01
  1.77804263529115e-01
  3.69064748804282e-02
  1.43307841944265e+01
  1.88627909885626e-01
  1.56794572814139e-02
  9.73106087343933e-01
  1.81224237364027e+00
  3.06211587998873e+00
  4.60751974293548e+00
  5.64285406447072e+00
  4.65737548687379e+00
  1.54844590126125e+00
  8.85003440430803e-01
  1.71754964781258e+00
 -1.77240444183369e+00
  6.34755069264484e-01
  1.08825269910943e-01
  1.27679810259400e-01
  5.99621510139067e-02
  5.83395367839964e+00
  6.94517385554491e+00
  6.47033263889273e+00
  4.01128311017259e+00
  1.42249246390442e+00
  7.30059230239136e-01
  1.77804263529115e-01
  3.69064748804282e-02
  1.43307841944265e+01
  1.88627909885626e-01
  1.56794572814139e-02
  9.73106087343933e-01
  1.81224237364027e+00
  3.06211587998873e+00
  4.60751974293548e+00
  5.64285406447072e+00
  4.65737548687379e+00
  1.54844590126125e+00
  8.85003440430803e-01
  1.71754964781258e+00
 -1.77240444183369e+00
  6.34755069264484e-01
  1.08825269910943e-01
  1.27679810259400e-01
  5.99621510139067e-02
  5.83395367839964e+00
  6.94517385554491e+00
  6.47033263889273e+00
  4.01128311017259e+00
  1.42249246390442e+00
  7.30059230239136e-01
  1.77804263529115e-01
  3.69064748804282e-02
  1.43307841944265e+01
  1.88627909885626e-01
  1.56794572814139e-02
  9.73106087343933e-01
  1.81224237364027e+00
  3.06211587998873e+00
  4.60751974293548e+00
  5.64285406447072e+00
  4.65737548687379e+00
  1.54844590126125e+00
  8.85003440430803e-01
  1.71754964781258e+00
 -1.77240444183369e+00
  6.34755069264484e-01
  1.08825269910943e-01
  1.27679810259400e-01
  5.99621510139067e-02
  5.83395367839964e+00
  6.94517385554491e+00
  6.47033263889273e+00
  4.01128311017259e+00
  1.42249246390442e+00
  7.30059230239136e-01
  1.77804263529115e-01
  3.69064748804282e-02
  1.43307841944265e+01
  1.88627909885626e-01
  1.56794572814139e-02
  9.73106087343933e-01
  1.81224237364027e+00
  3.06211587998873e+00
  4.60751974293548e+00
  5.64285406447072e+00
  4.65737548687379e+00
  1.54844590126125e+00
  8.85003440430803e-01
  1.71754964781258e+00
 -1.77240444183369e+00
  6.34755069264484e-01
  1.08825269910943e-01
  1.27679810259400e-01
  5.99621510139067e-02
  5.83395367839964e+00
  6.94517385554491e+00
  6.47033263889273e+00
  4.01128311017259e+00
  1.42249246390442e+00
  7.30059230239136e-01
  1.77804263529115e-01
  3.69064748804282e-02
  1.43307841944265e+01
  1.88627909885626e-01
  1.56794572814139e-02
  9.73106087343933e-01
  1.81224237364027e+00
  3.06211587998873e+00
  4.60751974293548e+00
  5.64285406447072e+00
  4.65737548687379e+00
  1.54844590126125e+00
  8.85003440430803e-01
  1.71754964781258e+00
 -1.77240444183369e+00
  6.34755069264484e-01
  1.08825269910943e-01
  1.27679810259400e-01
  5.99621510139067e-02
  5.83395367839964e+00
  6.94517385554491e+00
  6.47033263889273e+00
  4.01128311017259e+00
  1.42249246390442e+00
  7.30059230239136e-01
  1.77804263529115e-01
  3.69064748804282e-02
  1.43307841944265e+01
  1.88627909885626e-01
  1.56794572814139e-02
  9.73106087343933e-01
  1.81224237364027e+00
  3.06211587998873e+00
  4.60751974293548e+00
  5.64285406447072e+00
  4.65737548687379e+00
  1.54844590126125e+00
  8.85003440430803e-01
  1.71754964781258e+00
 -1.77240444183369e+00
  6.34755069264484e-01
  1.08825269910943e-01
  1.27679810259400e-01
  5.99621510139067e-02
  5.83395367839964e+00
  6.94517385554491e+00
  6.47033263889273e+00
  4.01128311017259e+00
  1.42249246390442e+00
  7.30059230239136e-01
  1.77804263529115e-01
  3.69064748804282e-02
  1.43307841944265e+01
  1.88627909885626e-01
  1.56794572814139e-02
  9.73106087343933e-01
  1.81224237364027e+00
  3.06211587998873e+00
  4.60751974293548e+00
  5.64285406447072e+00
  4.65737548687379e+00
  1.54844590126125e+00
  8.85003440430803e-01
  1.71754964781258e+00
 -1.77240444183369e+00
  6.34755069264484e-01
  1.08825269910943e-01
  1.27679810259400e-01
  5.99621510139067e-02
  5.83395367839964e+00
  6.94517385554491e+00
  6.47033263889273e+00
  4.01128311017259e+00
  1.42249246390442e+00
  7.30059230239136e-01
  1.77804263529115e-01
  3.69064748804282e-02
  1.43307841944265e+01
  1.88627909885626e-01
  1.56794572814139e-02
  9.73106087343933e-01
  1.81224237364027e+00
  3.06211587998873e+00
  4.60751974293548e+00
  5.64285406447072e+00
  4.65737548687379e+00
  1.54844590126125e+00
  8.85003440430803e-01
  1.71754964781258e+00
 -1.77240444183369e+00
  6.34755069264484e-01
  1.08825269910943e-01
  1.27679810259400e-01
  5.99621510139067e-02
  5.83395367839964e+00
  6.94517385554491e+00
  6.47033263889273e+00
  4.01128311017259e+00
  1.42249246390442e+00
  7.30059230239136e-01
  1.77804263529115e-01
  3.69064748804282e-02
  1.43307841944265e+01
  1.88627909885626e-01
  1.56794572814139e-02
  9.73106087343933e-01
  1.81224237364027e+00
  3.06211587998873e+00
  4.60751974293548e+00
  5.64285406447072e+00
  4.65737548687379e+00
  1.54844590126125e+00
  8.85003440430803e-01
  1.71754964781258e+00
 -1.77240444183369e+00
  6.34755069264484e-01
  1.08825269910943e-01
  1.27679810259400e-01
  5.99621510139067e-02
  5.83395367839964e+00
  6.94517385554491e+00
  6.47033263889273e+00
  4.01128311017259e+00
  1.42249246390442e+00
  7.30059230239136e-01
  1.77804263529115e-01
  3.69064748804282e-02
  1.43307841944265e+01
  1.88627909885626e-01
  1.56794572814139e-02
  9.73106087343933e-01
  1.81224237364027e+00
  3.06211587998873e+00
  4.60751974293548e+00
  5.64285406447072e+00
  4.65737548687379e+00
  1.54844590126125e+00
  8.85003440430803e-01
  1.71754964781258e+00
 -1.77240444183369e+00
  6.34755069264484e-01
  1.08825269910943e-01
  1.27679810259400e-01
  5.99621510139067e-02
  5.83395367839964e+00
  6.94517385554491e+00
  6.47033263889273e+00
  4.01128311017259e+00
  1.42249246390442e+00
  7.30059230239136e-01
  1.77804263529115e-01
  3.69064748804282e-02
  1.43307841944265e+01
  1.88627909885626e-01
  1.56794572814139e-02
  9.73106087343933e-01
  1.81224237364027e+00
  3.06211587998873e+00
  4.60751974293548e+00
  5.64285406447072e+00
  4.65737548687379e+00
  1.54844590126125e+00
  8.85003440430803e-01
  1.71754964781258e+00
 -1.77240444183369e+00
  6.34755069264484e-01
  1.08825269910943e-01
  1.27679810259400e-01
  5.99621510139067e-02
  5.83395367839964e+00
  6.94517385554491e+00
  6.47033263889273e+00
  4.01128311017259e+00
  1.42249246390442e+00
  7.30059230239136e-01
  1.77804263529115e-01
  3.69064748804282e-02
  1.43307841944265e+01
  1.88627909885626e-01
  1.56794572814139e-02
  9.73106087343933e-01
  1.81224237364027e+00
  3.06211587998873e+00
  4.60751974293548e+00
  5.64285406447072e+00
  4.65737548687379e+00
  1.54844590126125e+00
  8.85003440430803e-01
  1.71754964781258e+00
 -1.77240444183369e+00
  6.34755069264484e-01
  1.08825269910943e-01
  1.27679810259400e-01
  5.99621510139067e-02
  5.83395367839964e+00
  6.94517385554491e+00
  6.47033263889273e+00
  4.01128311017259e+00
  1.42249246390442e+00
  7.30059230239136e-01
  1.77804263529115e-01
  3.69064748804282e-02
  1.43307841944265e+01
  1.88627909885626e-01
  1.56794572814139e-02
  9.73106087343933e-01
  1.81224237364027e+00
  3.06211587998873e+00
  4.60751974293548e+00
  5.64285406447072e+00
  4.65737548687379e+00
  1.54844590126125e+00
  8.85003440430803e-01
  1.71754964781258e+00
 -1.77240444183369e+00
  6.34755069264484e-01
  1.08825269910943e-01
  1.27679810259400e-01
  5.99621510139067e-02
  5.83395367839964e+00
  6.94517385554491e+00
  6.47033263889273e+00
  4.01128311017259e+00
  1.42249246390442e+00
  7.30059230239136e-01
  1.77804263529115e-01
  3.69064748804282e-02
  1.43307841944265e+01
  1.88627909885626e-01
  1.56794572814139e-02
  9.73106087343933e-01
  1.81224237364027e+00
  3.06211587998873e+00
  4.60751974293548e+00
  5.64285406447072e+00
  4.65737548687379e+00
  1.54844590126125e+00
  8.85003440430803e-01
  1.71754964781258e+00
 -1.77240444183369e+00
  6.34755069264484e-01
  1.08825269910943e-01
  1.27679810259400e-01
  5.99621510139067e-02
  5.83395367839964e+00
  6.94517385554491e+00
  6.47033263889273e+00
  4.01128311017259e+00
  1.42249246390442e+00
  7.30059230239136e-01
  1.77804263529115e-01
  3.69064748804282e-02
  1.43307841944265e+01
  1.88627909885626e-01
  1.56794572814139e-02
  8.59858245512954e-01
  1.60553055583268e+00
  2.74587786008374e+00
  4.29876744377514e+00
  5.87976632606916e+00
  6.31639832217741e+00
  2.98121475220647e+00
  9.41955963472117e-01
  8.01929161019723e-01
  4.01164806220299e-01
  2.01079940597691e-01
  3.05720173538001e+00
  3.38448394330487e+00
  2.94742621281071e+00
  1.71182714942223e+00
  6.43605792621033e-01
  1.61089725392340e-01
  7.14570901056904e+00
  7.64080219480683e-01
  3.28165495951497e+00
  8.59858245512954e-01
  1.60553055583268e+00
  2.74587786008374e+00
  4.29876744377514e+00
  5.87976632606916e+00
  6.31639832217741e+00
  2.98121475220647e+00
  9.41955963472117e-01
  8.01929161019723e-01
  4.01164806220299e-01
  2.01079940597691e-01
  3.05720173538001e+00
  3.38448394330487e+00
  2.94742621281071e+00
  1.71182714942223e+00
  6.43605792621033e-01
  1.61089725392340e-01
  7.14570901056904e+00
  7.64080219480683e-01
  3.28165495951497e+00
  8.59858245512954e-01
  1.60553055583268e+00
  2.74587786008374e+00
  4.29876744377514e+00
  5.87976632606916e+00
  6.31639832217741e+00
  2.98121475220647e+00
  9.41955963472117e-01
  8.01929161019723e-01
  4.01164806220299e-01
  2.01079940597691e-01
  3.05720173538001e+00
  3.38448394330487e+00
  2.94742621281071e+00
  1.71182714942223e+00
  6.43605792621033e-01
  1.61089725392340e-01
  7.14570901056904e+00
  7.64080219480683e-01
  3.28165495951497e+00
  8.59858245512954e-01
  1.60553055583268e+00
  2.74587786008374e+00
  4.29876744377514e+00
  5.87976632606916e+00
  6.31639832217741e+00
  2.98121475220647e+00
  9.41955963472117e-01
  8.01929161019723e-01
  4.01164806220299e-01
  2.01079940597691e-01
  3.05720173538001e+00
  3.38448394330487e+00
  2.94742621281071e+00
  1.71182714942223e+00
  6.43605792621033e-01
  1.61089725392340e-01
  7.14570901056904e+00
  7.64080219480683e-01
  3.28165495951497e+00
  8.59858245512954e-01
  1.60553055583268e+00
  2.74587786008374e+00
  4.29876744377514e+00
  5.87976632606916e+00
  6.31639832217741e+00
  2.98121475220647e+00
  9.41955963472117e-01
  8.01929161019723e-01
  4.01164806220299e-01
  2.01079940597691e-01
  3.05720173538001e+00
  3.38448394330487e+00
  2.94742621281071e+00
  1.71182714942223e+00
  6.43605792621033e-01
  1.61089725392340e-01
  7.14570901056904e+00
  7.64080219480683e-01
  3.28165495951497e+00
  8.59858245512954e-01
  1.60553055583268e+00
  2.74587786008374e+00
  4.29876744377514e+00
  5.87976632606916e+00
  6.31639832217741e+00
  2.98121475220647e+00
  9.41955963472117e-01
  8.01929161019723e-01
  4.01164806220299e-01
  2.01079940597691e-01
  3.05720173538001e+00
  3.38448394330487e+00
  2.94742621281071e+00
  1.71182714942223e+00
  6.43605792621033e-01
  1.61089725392340e-01
  7.14570901056904e+00
  7.64080219480683e-01
  3.28165495951497e+00
  8.59858245512954e-01
  1.60553055583268e+00
  2.74587786008374e+00
  4.29876744377514e+00
  5.87976632606916e+00
  6.31639832217741e+00
  2.98121475220647e+00
  9.41955963472117e-01
  8.01929161019723e-01
  4.01164806220299e-01
  2.01079940597691e-01
  3.05720173538001e+00
  3.38448394330487e+00
  2.94742621281071e+00
  1.71182714942223e+00
  6.43605792621033e-01
  1.61089725392340e-01
  7.14570901056904e+00
  7.64080219480683e-01
  3.28165495951497e+00
  8.59858245512954e-01
  1.60553055583268e+00
  2.74587786008374e+00
  4.29876744377514e+00
  5.87976632606916e+00
  6.31639832217741e+00
  2.98121475220647e+00
  9.41955963472117e-01
  8.01929161019723e-01
  4.01164806220299e-01
  2.01079940597691e-01
  3.05720173538001e+00
  3.38448394330487e+00
  2.94742621281071e+00
  1.71182714942223e+00
  6.43605792621033e-01
  1.61089725392340e-01
  7.14570901056904e+00
  7.64080219480683e-01
  3.28165495951497e+00
  8.59858245512954e-01
  1.60553055583268e+00
  2.74587786008374e+00
  4.29876744377514e+00
  5.87976632606916e+00
  6.31639832217741e+00
  2.98121475220647e+00
  9.41955963472117e-01
  8.01929161019723e-01
  4.01164806220299e-01
  2.01079940597691e-01
  3.05720173538001e+00
  3.38448394330487e+00
  2.94742621281071e+00
  1.71182714942223e+00
  6.43605792621033e-01
  1.61089725392340e-01
  7.14570901056904e+00
  7.64080219480683e-01
  3.28165495951497e+00
  8.59858245512954e-01
  1.60553055583268e+00
  2.74587786008374e+00
  4.29876744377514e+00
  5.87976632606916e+00
  6.31639832217741e+00
  2.98121475220647e+00
  9.41955963472117e-01
  8.01929161019723e-01
  4.01164806220299e-01
  2.01079940597691e-01
  3.05720173538001e+00
  3.38448394330487e+00
  2.94742621281071e+00
  1.71182714942223e+00
  6.43605792621033e-01
  1.61089725392340e-01
  7.14570901056904e+00
  7.64080219480683e-01
  3.28165495951497e+00
  8.59858245512954e-01
  1.60553055583268e+00
  2.74587786008374e+00
  4.29876744377514e+00
  5.87976632606916e+00
  6.31639832217741e+00
  2.98121475220647e+00
  9.41955963472117e-01
  8.01929161019723e-01
  4.01164806220299e-01
  2.01079940597691e-01
  3.05720173538001e+00
  3.38448394330487e+00
  2.94742621281071e+00
  1.71182714942223e+00
  6.43605792621033e-01
  1.61089725392340e-01
  7.14570901056904e+00
  7.64080219480683e-01
  3.28165495951497e+00
  8.59858245512954e-01
  1.60553055583268e+00
  2.74587786008374e+00
  4.29876744377514e+00
  5.87976632606916e+00
  6.31639832217741e+00
  2.98121475220647e+00
  9.41955963472117e-01
  8.01929161019723e-01
  4.01164806220299e-01
  2.01079940597691e-01
  3.05720173538001e+00
  3.38448394330487e+00
  2.94742621281071e+00
  1.71182714942223e+00
  6.43605792621033e-01
  1.61089725392340e-01
  7.14570901056904e+00
  7.64080219480683e-01
  3.28165495951497e+00
  8.59858245512954e-01
  1.60553055583268e+00
  2.74587786008374e+00
  4.29876744377514e+00
  5.87976632606916e+00
  6.31639832217741e+00
  2.98121475220647e+00
  9.41955963472117e-01
  8.01929161019723e-01
  4.01164806220299e-01
  2.01079940597691e-01
  3.05720173538001e+00
  3.38448394330487e+00
  2.94742621281071e+00
  1.71182714942223e+00
  6.43605792621033e-01
  1.61089725392340e-01
  7.14570901056904e+00
  7.64080219480683e-01
  3.28165495951497e+00
  8.59858245512954e-01
  1.60553055583268e+00
  2.74587786008374e+00
  4.29876744377514e+00
  5.87976632606916e+00
  6.31639832217741e+00
  2.98121475220647e+00
  9.41955963472117e-01
  8.01929161019723e-01
  4.01164806220299e-01
  2.01079940597691e-01
  3.05720173538001e+00
  3.38448394330487e+00
  2.94742621281071e+00
  1.71182714942223e+00
  6.43605792621033e-01
  1.61089725392340e-01
  7.14570901056904e+00
  7.64080219480683e-01
  3.28165495951497e+00
  8.59858245512954e-01
  1.60553055583268e+00
  2.74587786008374e+00
  4.29876744377514e+00
  5.87976632606916e+00
  6.31639832217741e+00
  2.98121475220647e+00
  9.41955963472117e-01
  8.01929161019723e-01
  4.01164806220299e-01
  2.01079940597691e-01
  3.05720173538001e+00
  3.38448394330487e+00
  2.94742621281071e+00
  1.71182714942223e+00
  6.43605792621033e-01
  1.61089725392340e-01
  7.14570901056904e+00
  7.64080219480683e-01
  3.28165495951497e+00
  8.59858245512954e-01
  1.60553055583268e+00
  2.74587786008374e+00
  4.29876744377514e+00
  5.87976632606916e+00
  6.31639832217741e+00
  2.98121475220647e+00
  9.41955963472117e-01
  8.01929161019723e-01
  4.01164806220299e-01
  2.01079940597691e-01
  3.05720173538001e+00
  3.38448394330487e+00
  2.94742621281071e+00
  1.71182714942223e+00
  6.43605792621033e-01
  1.61089725392340e-01
  7.14570901056904e+00
  7.64080219480683e-01
  3.28165495951497e+00
  8.59858245512954e-01
  1.60553055583268e+00
  2.74587786008374e+00
  4.29876744377514e+00
  5.87976632606916e+00
  6.31639832217741e+00
  2.98121475220647e+00
  9.41955963472117e-01
  8.01929161019723e-01
  4.01164806220299e-01
  2.01079940597691e-01
  3.05720173538001e+00
  3.38448394330487e+00
  2.94742621281071e+00
  1.71182714942223e+00
  6.43605792621033e-01
  1.61089725392340e-01
  7.14570901056904e+00
  7.64080219480683e-01
  3.28165495951497e+00
  8.59858245512954e-01
  1.60553055583268e+00
  2.74587786008374e+00
  4.29876744377514e+00
  5.87976632606916e+00
  6.31639832217741e+00
  2.98121475220647e+00
  9.41955963472117e-01
  8.01929161019723e-01
  4.01164806220299e-01
  2.01079940597691e-01
  3.05720173538001e+00
  3.38448394330487e+00
  2.94742621281071e+00
  1.71182714942223e+00
  6.43605792621033e-01
  1.61089725392340e-01
  7.14570901056904e+00
  7.64080219480683e-01
  3.28165495951497e+00
  8.59858245512954e-01
  1.60553055583268e+00
  2.74587786008374e+00
  4.29876744377514e+00
  5.87976632606916e+00
  6.31639832217741e+00
  2.98121475220647e+00
  9.41955963472117e-01
  8.01929161019723e-01
  4.01164806220299e-01
  2.01079940597691e-01
  3.05720173538001e+00
  3.38448394330487e+00
  2.94742621281071e+00
  1.71182714942223e+00
  6.43605792621033e-01
  1.61089725392340e-01
  7.14570901056904e+00
  7.64080219480683e-01
  3.28165495951497e+00
  8.59858245512954e-01
  1.60553055583268e+00
  2.74587786008374e+00
  4.29876744377514e+00
  5.87976632606916e+00
  6.31639832217741e+00
  2.98121475220647e+00
  9.41955963472117e-01
  8.01929161019723e-01
  4.01164806220299e-01
  2.01079940597691e-01
  3.05720173538001e+00
  3.38448394330487e+00
  2.94742621281071e+00
  1.71182714942223e+00
  6.43605792621033e-01
  1.61089725392340e-01
  7.14570901056904e+00
  7.64080219480683e-01
  3.28165495951497e+00
  8.59858245512954e-01
  1.60553055583268e+00
  2.74587786008374e+00
  4.29876744377514e+00
  5.87976632606916e+00
  6.31639832217741e+00
  2.98121475220647e+00
  9.41955963472117e-01
  8.01929161019723e-01
  4.01164806220299e-01
  2.01079940597691e-01
  3.05720173538001e+00
  3.38448394330487e+00
  2.94742621281071e+00
  1.71182714942223e+00
  6.43605792621033e-01
  1.61089725392340e-01
  7.14570901056904e+00
  7.64080219480683e-01
  3.28165495951497e+00
  8.59858245512954e-01
  1.60553055583268e+00
  2.74587786008374e+00
  4.29876744377514e+00
  5.87976632606916e+00
  6.31639832217741e+00
  2.98121475220647e+00
  9.41955963472117e-01
  8.01929161019723e-01
  4.01164806220299e-01
  2.01079940597691e-01
  3.05720173538001e+00
  3.38448394330487e+00
  2.94742621281071e+00
  1.71182714942223e+00
  6.43605792621033e-01
  1.61089725392340e-01
  7.14570901056904e+00
  7.64080219480683e-01
  3.28165495951497e+00
  8.59858245512954e-01
  1.60553055583268e+00
  2.74587786008374e+00
  4.29876744377514e+00
  5.87976632606916e+00
  6.31639832217741e+00
  2.98121475220647e+00
  9.41955963472117e-01
  8.01929161019723e-01
  4.01164806220299e-01
  2.01079940597691e-01
  3.05720173538001e+00
  3.38448394330487e+00
  2.94742621281071e+00
  1.71182714942223e+00
  6.43605792621033e-01
  1.61089725392340e-01
  7.14570901056904e+00
  7.64080219480683e-01
  3.28165495951497e+00
  8.59858245512954e-01
  1.60553055583268e+00
  2.74587786008374e+00
  4.29876744377514e+00
  5.87976632606916e+00
  6.31639832217741e+00
  2.98121475220647e+00
  9.41955963472117e-01
  8.01929161019723e-01
  4.01164806220299e-01
  2.01079940597691e-01
  3.05720173538001e+00
  3.38448394330487e+00
  2.94742621281071e+00
  1.71182714942223e+00
  6.43605792621033e-01
  1.61089725392340e-01
  7.14570901056904e+00
  7.64080219480683e-01
  3.28165495951497e+00
  8.59858245512954e-01
  1.60553055583268e+00
  2.74587786008374e+00
  4.29876744377514e+00
  5.87976632606916e+00
  6.31639832217741e+00
  2.98121475220647e+00
  9.41955963472117e-01
  8.01929161019723e-01
  4.01164806220299e-01
  2.01079940597691e-01
  3.05720173538001e+00
  3.38448394330487e+00
  2.94742621281071e+00
  1.71182714942223e+00
  6.43605792621033e-01
  1.61089725392340e-01
  7.14570901056904e+00
  7.64080219480683e-01
  3.28165495951497e+00
  8.59858245512954e-01
  1.60553055583268e+00
  2.74587786008374e+00
  4.29876744377514e+00
  5.87976632606916e+00
  6.31639832217741e+00
  2.98121475220647e+00
  9.41955963472117e-01
  8.01929161019723e-01
  4.01164806220299e-01
  2.01079940597691e-01
  3.05720173538001e+00
  3.38448394330487e+00
  2.94742621281071e+00
  1.71182714942223e+00
  6.43605792621033e-01
  1.61089725392340e-01
  7.14570901056904e+00
  7.64080219480683e-01
  3.28165495951497e+00
  8.59858245512954e-01
  1.60553055583268e+00
  2.74587786008374e+00
  4.29876744377514e+00
  5.87976632606916e+00
  6.31639832217741e+00
[...]
 -0.12241 -0.11788 -0.11753 -0.11751 -0.11751 -0.11650 -0.11650 -0.11629 -0.11565 -0.11565
 -0.11225 -0.11222 -0.11198 -0.11198 -0.10955 -0.10943 -0.10943 -0.10915 -0.10791 -0.10579
 -0.10579 -0.10463 -0.10463 -0.10424 -0.10268 -0.09610 -0.09610 -0.09603 -0.09601 -0.09585
 -0.09518 -0.09245 -0.09240 -0.09240 -0.09240 -0.09075 -0.09075 0.01819 0.01819 0.02734
 0.06459 0.07452 0.07490 0.07490 0.07518 0.09160 0.09379 0.09379 0.10034 0.10989
 0.10999 0.10999 0.11017 0.12531 0.12884 0.12884 0.13781 0.14585 0.14741 0.14741
 0.15860 0.15882 0.17062 0.17207 0.17358 0.17358 0.17395 0.17420 0.17432 0.17432
 0.17433 0.18786 0.18883 0.19100 0.19100 0.19233 0.19233 0.19462 0.19651 0.19655
 0.21172 0.21172 0.21370 0.21736 0.21760 0.21760 0.21800 0.21934 0.23159 0.23159
 0.23161 0.23229 0.24010 0.24070 0.24074 0.24074 0.24144 0.24813 0.24820 0.24820
 0.24969 0.25538 0.26192 0.26192 0.26459 0.26541 0.27037 0.27037 0.27083 0.27378
 0.27523 0.27650 0.27650 0.27943 0.27943 0.28578 0.29216 0.29810 0.30107 0.30144
 0.30144 0.30275 0.30314 0.30347 0.30347 0.30350 0.30367 0.30490 0.30490 0.30542
 0.30599 0.30599 0.30985 0.31910 0.32126 0.32127 0.32127 0.32137 0.32595 0.32595
 0.32738 0.32998 0.32998 0.33738 0.33824 0.33832 0.33861 0.33861 0.34253 0.34700
 0.34700 0.34704 0.35303 0.35733 0.35884 0.35896 0.35896 0.35918 0.36213 0.36213
 0.36584 0.36584 0.36707 0.36756 0.36822 0.36822 0.36889 0.37365 0.37712 0.38001
 0.38001 0.38149 0.38233 0.38724 0.38789 0.38789 0.38936 0.38936 0.38954 0.38987
 0.39382 0.39513 0.39843 0.40288 0.40289 0.40289 0.40305 0.40336 0.40336 0.40338
 0.40367 0.40404 0.40404 0.40631 0.41009 0.41009 0.41148 0.41509 0.41810 0.41810
 0.41812 0.41911 0.41956 0.41956 0.41966 0.42139 0.42300 0.43390 0.43607 0.43607
 0.43781 0.44434 0.45670 0.45748 0.45748 0.45753 0.46426 0.46785 0.47403 0.47434
 0.47523 0.47523 0.47565 0.47565 0.47833 0.47837 0.47837 0.47847 0.48175 0.48250
 0.48271 0.48316 0.48316 0.48396 0.48704 0.48939 0.49095 0.49106 0.49106 0.49544
 0.49544 0.50293 0.51515 0.51613 0.51760 0.52098 0.52098 0.52176 0.52385 0.52385
 0.52538 0.52746 0.52771 0.52771 0.52773 0.52880 0.53119 0.53213 0.53213 0.53368
 0.53368 0.53477 0.53513 0.53513 0.53517 0.53688 0.53688 0.54013 0.54203 0.54571
 0.54571 0.54604 0.54621 0.54621 0.54647 0.55341 0.55387 0.55854 0.55854 0.56078
 0.56212 0.56333 0.56564 0.56564 0.56719 0.56752 0.57199 0.57223 0.57244 0.57245
 0.57655 0.57671 0.57671 0.58263 0.58263 0.58441 0.58441 0.58958 0.59460 0.59618
 0.59694 0.59694 0.60078 0.60078 0.60435 0.60501 0.60501 0.60504 0.60882 0.60882
 0.61271 0.61922 0.62005 0.62053 0.62053 0.62302 0.62347 0.62347 0.62722 0.63230
 0.63371 0.63371 0.63798 0.64134 0.64137 0.64137 0.64594 0.65304 0.65928 0.66093
 0.66675 0.66675 0.67217 0.67286 0.67286 0.67552 0.67552 0.67818 0.67881 0.68348
 0.68690 0.68758 0.69130 0.69130 0.69399 0.69599 0.69886 0.69886 0.70024 0.70024
 0.70254 0.70272 0.70472 0.70472 0.70496 0.70516 0.70693 0.70744 0.70846 0.70846
 0.70856 0.71102 0.71102 0.71166 0.71468 0.72486 0.72564 0.72564 0.74027 0.74867
 0.74867 0.74891 0.75023 0.75861 0.76138 0.76138 0.76710 0.76874 0.76918 0.77304
 0.77312 0.77312 0.77350 0.78369 0.78620 0.78620 0.79014 0.79320 0.79473 0.79473
 0.79474 0.79831 0.79831 0.80097 0.80097 0.80155 0.81574 0.81617 0.82075 0.82537
 0.82537 0.82625 0.82762 0.82862 0.82901 0.82902 0.82902 0.83104 0.83164 0.83164
 0.83451 0.83573 0.83573 0.83800 0.83822 0.84063 0.84126 0.84126 0.84293 0.84514
 0.85400 0.85400 0.85452 0.85478 0.85621 0.85621 0.86100 0.86132 0.86195 0.86315
 0.86343 0.86343 0.86565 0.86608 0.86608 0.86638 0.86970 0.87063 0.87094 0.87094
 0.87185 0.87448 0.87448 0.87717 0.87717 0.87886 0.88390 0.89130 0.89243 0.89243
 0.89480 0.90248 0.90248 0.91386 0.91506 0.93321 0.93321 0.93401 0.93566 0.93585
 0.93585 0.94095 0.94680 0.94824 0.94890 0.94890 0.94907 0.95031 0.95261 0.95360
 0.95360 0.95476 0.95538 0.95590 0.95641 0.95711 0.95828 0.95981 0.96070 0.96080
 0.96080 0.96694 0.96698 0.96698 0.96854 0.97508 0.97558 0.97558 0.97593 0.97715
 0.97729 0.97743 0.97743 0.98037 0.98037 0.98183 0.98358 0.98401 0.98423 0.98423
 0.98623 0.98623 0.98876 0.98992 0.98992 0.99057 0.99219 0.99285 0.99603 1.00229
 1.00229 1.00733 1.00733 1.01086 1.02470 1.02470 1.03069 1.03230 1.03389 1.03389
 1.03733 1.03733 1.04564 1.04571 1.05017 1.05017 1.05667 1.06167 1.06263 1.06263
 1.06754 1.07145 1.07145 1.07203 1.07207 1.07291 1.07345 1.07345 1.07363 1.07425
 1.07469 1.07503 1.07578 1.07578 1.07720 1.07721 1.08076 1.08356 1.08502 1.08502
 1.08687 1.08762 1.09512 1.10008 1.10008 1.10220 1.10494 1.10861 1.10861 1.11016
 1.11073 1.11712 1.11791 1.11791 1.11879 1.12152 1.12417 1.12417 1.12582 1.12587
 1.12755 1.12826 1.12919 1.12940 1.12940 1.13289 1.13289 1.13361 1.14262 1.15477
 1.15477 1.16112 1.16112 1.16143 1.17003 1.17012 1.17012 1.17181 1.18444 1.18669
 1.20277 1.20546 1.20623 1.20623 1.20908 1.22579 1.22579 1.23640 1.24764 1.25277
 1.25277 1.25298 1.25746 1.25858 1.25918 1.25918 1.26303 1.26727 1.26727 1.27246
 1.27398 1.27398 1.27797 1.27951 1.28511 1.28533 1.28972 1.28973 1.29711 1.29711
 1.29926 1.30422 1.30632 1.30842 1.31798 1.31973 1.31973 1.32869 1.32869 1.33674
 1.34495 1.34496 1.34606 1.34606 1.34762 1.34763 1.35352 1.35702 1.35718 1.35718
 1.35954 1.35954 1.36170 1.36789 1.40478 1.40703 1.40735 1.41018 1.41018 1.41065
 1.41104 1.41180 1.41180 1.43420 1.43740 1.43798 1.43798 1.46063 1.46220 1.46220
 1.47012 1.47032 1.47059 1.47059 1.47082 1.47265 1.47265 1.47669 1.47728 1.47729
 1.47807 1.49097 1.49492 1.49606 1.49606 1.50690 1.50690 1.50730 1.50775 1.50966
 1.50979 1.50979 1.51011 1.51248 1.51271 1.51271 1.51518 1.51518 1.52002 1.52119
 1.52190 1.52233 1.52275 1.52278 1.52278 1.52959 1.54097 1.54097 1.54974 1.56229
 1.56229 1.56355 1.56512 1.56512 1.56604 1.56604 1.56645 1.56704 1.57183 1.57634
 1.57634 1.57911 1.58015 1.58032 1.58405 1.58405 1.58602 1.59309 1.59309 1.60099
 1.60631 1.60631 1.61931 1.62519 1.63170 1.63367 1.63367 1.63471 1.63478 1.63641
 1.63769 1.63875 1.63875 1.64075 1.64116 1.64116 1.64208 1.64237 1.64246 1.64301
 1.64301 1.64612 1.64613 1.64789 1.64910 1.65282 1.65282 1.65423 1.65608 1.65608
 1.65880 1.66722 1.66785 1.66785 1.67525 1.68007 1.68092 1.68093 1.68303 1.68445
 1.68811 1.68811 1.71079 1.72759 1.74235 1.74235 1.75366 1.75522 1.75914 1.76034
 1.76034 1.76187 1.77300 1.77300 1.80474 1.83407 1.84919 1.88237 1.88237 1.89468
 1.91223 1.91318 1.91516 1.91516 1.92252 1.92252 1.92547 1.92679 1.93672 1.93672
 1.93727 1.94524 1.94524 1.94653 1.94910 1.95509 1.95509 1.95668 1.96397 1.96980
 1.96996 1.97044 1.97044 1.97099 1.98845 1.98958 1.99005 1.99005 1.99968 2.00070
 2.00251 2.00251 2.00282 2.00391 2.01000 2.01000 2.02077 2.02210 2.02833 2.02833
 2.03499 2.03499 2.04221 2.04552 2.04552 2.05146 2.05169 2.05172 2.05250 2.05250
 2.05379 2.05670 2.05682 2.05810 2.05810 2.06040 2.06404 2.06628 2.06628 2.06826
 2.06826 2.08030 2.08198 2.08736 2.08858 2.08858 2.08888 2.09269 2.09269 2.09281
 2.09323 2.09516 2.09540 2.09540 2.09545 2.09612 2.09672 2.09672 2.09890 2.09903
 2.10090 2.10090 2.10134 2.10370 2.10895 2.11629 2.11629 2.14226 2.14504 2.14617
 2.14778 2.14778 2.14932 2.15197 2.15634 2.15681 2.16004 2.16005 2.16981 2.17078
 2.17078 2.17592 2.17658 2.17913 2.17913 2.19404 2.22268 2.22318 2.22334 2.22334
 2.22372 2.23880 2.23880 2.23884 2.23940 2.27097 2.27447 2.27633 2.27660 2.27660
 2.28537 2.28854 2.30313 2.30332 2.31777 2.31990 2.31990 2.32229 2.32332 2.32343
 2.32432 2.32432 2.32470 2.32470 2.33532 2.33532 2.36414 2.38297 2.38297 2.38372
 2.38387 2.44072 2.44524 2.45058 2.45368 2.46666 2.46666 2.47098 2.48806 2.48807
 2.48807 2.48829 2.49383 2.49586 2.49639 2.49677 2.49677 2.49969 2.49969 2.50045
 2.50819 2.50819 2.51494 2.52614 2.52618 2.52618 2.53091 2.54868 2.54868 2.54921
 2.55114 2.56058 2.58438 2.58481 2.58481 2.58609 2.59575 2.61553 2.61920 2.61920
 2.62520 2.63311 2.64098 2.64098 2.64656 2.65790 2.66088 2.66088 2.66197 2.67076
 2.67196 2.67196 2.67210 2.67454 2.67987 2.67988 2.69923 2.69923 2.71586 2.71586
 2.72649 2.72898 2.73245 2.73246 2.73249 2.75787 2.75862 2.75862 2.76304 2.76469
 2.76753 2.76753 2.77262 2.77275 2.78016 2.78135 2.78135 2.78626 2.78826 2.78826
 2.79641 2.79641 2.80128 2.84300 2.86420 2.86420 2.89861 2.89972 2.94401 2.94401
 2.97659 2.97660 3.02602 3.04379 3.04379 3.04569 3.05467 3.05640 3.05983 3.05990
 3.05990 3.07583 3.08045 3.08888 3.08888 3.09048 3.09120 3.09455 3.09455 3.09851
 3.10487 3.11064 3.11786 3.11831 3.11831 3.14207 3.14207 3.17845 3.17846 3.18319
 3.18972 3.19287 3.19287 3.19681 3.19761 3.21422 3.21793 3.21793 3.22000 3.22629
 3.22629 3.22911 3.23451 3.23660 3.23660 3.23754 3.23981 3.24052 3.24052 3.24498
 3.24887 3.25512 3.25512 3.25793 3.26005 3.27844 3.27844 3.27895 3.27941 3.28438
 3.28438 3.29075 3.29729 3.29883 3.33858 3.33858 3.36248 3.38404 3.38508 3.38614
 3.38764 3.38764 3.38829 3.39403 3.39404 3.39852 3.40150 3.42378 3.42378 3.42616
 3.42762 3.44914 3.45569 3.45569 3.46794 3.46794 3.48280 3.49846 3.49958 3.49958
 3.50372 3.50372 3.52676 3.53805 3.54007 3.54515 3.54515 3.55260 3.55341 3.55726
 3.55847 3.55847 3.56189 3.56786 3.56786 3.61953 3.68680 3.68680 3.72722 3.72722
 3.74694 3.74743 3.76924 3.76924 3.78365 3.84917 3.87347 3.87348 3.87397 3.87473
 3.87587 3.87587 3.87757 3.88004 3.88159 3.88160 3.88443 3.92837 3.94712 3.94748
 3.94748 3.96869 3.97549 3.97587 3.97587 3.97681 3.97925 3.97925 3.98047 3.98053
 3.99082 3.99371 3.99371 3.99682 4.01723 4.16657 4.17806 4.26278 5.05253 5.05253
 5.15464 5.16247 5.16469 5.16535 5.16535 5.16550 5.16609 5.16692 5.16820 5.16825
 5.16847 5.16847 5.16859 5.16859 5.16859 5.16887 5.16887 5.16906 5.16937 5.16978
 5.17074 5.17074 5.17095 5.17122 5.17125 5.17125 5.17221 5.17221 5.17372 5.17372
 5.17431 5.17531 5.17534 5.17534 5.17568 5.17576 5.17878 5.17944 5.17944 5.17945
 5.17965 5.18486 5.18520 5.18523 5.18533 5.18533 5.18584 5.18584 5.18640 5.18647
 5.18652 5.18652 5.18825 5.18899 5.18901 5.18908 5.18908 5.18941 5.18941 5.18951
 5.19195 5.19210 5.19217 5.19217 5.19260 5.19262 5.19262 5.19287 5.19300 5.19303
 5.19371 5.19371 5.19385 5.19598 5.19974 5.19974 5.20192 5.20327 5.20684 5.20686
 5.20711 5.20711 5.20782 5.20824 5.20824 5.20829 5.20922 5.20951 5.20951 5.20981
 5.21085 5.21085 5.21139 5.21213 5.21510 5.21519 5.21519 5.21885 5.21918 5.21932
 5.21947 5.21947 5.21975 5.22149 5.22149 5.22598 5.22598 5.22761 5.22793 5.22800
 5.22860 5.22860 5.23022 5.23022 5.23059 5.23362 5.23670 5.23789 5.23968 5.23968
 5.24193 5.24225 5.24372 5.24468 5.24569 5.24569 5.24645 5.24699 5.24699 5.24756
 5.24819 5.24819 5.25333 5.25333 5.25592 5.25788 5.26124 5.27982 5.28166 5.28166
 5.28191 5.28364 5.28364 5.28535 5.28820 5.28961 5.29013 5.29013 5.29238 5.29504
 5.29850 5.29850 5.29896 5.30543 5.30543 5.31076 5.31609 5.33774 5.33806 5.33867
 5.33884 5.33884 5.33927 5.33927 5.33962 5.34401 5.34915 5.35095 5.35722 5.35722
 5.35759 5.35926 5.35926 5.35955 5.35961 5.36009 5.36170 5.36170 5.36266 5.36266
 5.36760 5.36908 5.37744 5.37744 5.37769 5.38042 5.39043 5.39101 5.39101 5.39108
 5.39613 5.39613 5.39779 5.39798 5.39882 5.39882 5.41239 5.41363 5.41376 5.41376
 5.41590 5.41719 5.41723 5.41723 5.42044 5.42194 5.42194 5.42269 5.42304 5.42524
 5.42845 5.42845 5.44309 5.44550 5.45618 5.45618 5.46650 5.46650 5.47558 5.47850
 5.48083 5.48165 5.48165 5.48226 5.48984 5.48984 5.82050 5.98538 5.98872 5.98872
 5.99926 6.02673 6.02755 6.02755 6.04464 6.08337 6.09793 6.15559 6.15559 6.20138
 6.20771 6.23316 6.23412 6.23477 6.23477 6.24469 6.25174 6.25253 6.25253 6.25465
 6.26413 6.30075 6.30075 6.30385 6.30504 6.30607 6.30607 6.31103 6.31103 6.31296
 6.31296 6.31345 6.31442 6.31634 6.31634 6.31663 6.31830 6.31854 6.31881 6.31987
 6.32209 6.32408 6.32569 6.32569 6.32938 6.33009 6.33009 6.34317 6.34827 6.34827
 6.35542 6.36290 6.36295 6.36342 6.36342 6.36406 6.36406 6.36476 6.36738 6.36860
 6.36924 6.36924 6.38074 6.38180 6.39278 6.39473 6.39526 6.40005 6.40101 6.40329
 6.40373 6.40373 6.40726 6.40726 6.42004 6.42044 6.42053 6.42195 6.42195 6.42280
 6.42445 6.42559 6.42559 6.43912 6.43916 6.44024 6.44024 6.45900 6.46224 6.46260
 6.46260 6.46275 6.46636 6.47236 6.47334 6.47334 6.47461 6.47726 6.48020 6.48020
 6.48100 6.48270 6.48270 6.48323 6.48329 6.48556 6.48556 6.48629 6.48763 6.48763
 6.48831 6.48840 6.49090 6.49116 6.49432 6.49432 6.49768 6.49794 6.49902 6.49902
 6.49922 6.50052 6.50052 6.51527 6.53209 6.53431 6.53624 6.53624 6.53653 6.54470
 6.55508 6.55570 6.55570 6.55572 6.55608 6.55690 6.56017 6.56017 6.56234 6.56823
 6.56823 6.57176 6.57304 6.57304 6.57421 6.57462 6.57462 6.57498 6.57525 6.57595
 6.57895 6.57895 6.58078 6.58671 6.59266 6.59266 6.59307 6.59311 6.59337 6.59353
 6.59409 6.59409 6.59720 6.59720 6.60236 6.61368 6.61395 6.61418 6.61418 6.61745
 6.61771 6.61771 6.61795 6.61915 6.61920 6.61920 6.61954 6.62148 6.62148 6.62350
 6.62590 6.62666 6.62666 6.62691 6.62969 6.62969 6.62991 6.63340 6.63340 6.64092
 6.65098 6.65184 6.65185 6.66268 6.66717 6.66743 6.66773 6.66773 6.67387 6.67387
 6.67432 6.67512 6.68386 6.68412 6.68413 6.68466 6.68466 6.68551 6.68623 6.68623
 6.68697 6.68738 6.68762 6.69415 6.69415 6.69587 6.69905 6.69905 6.70316 6.70316
 6.70491 6.70665 6.71867 6.71867 6.72413 6.73258 6.73258 6.73407 6.73523 6.73523
 6.74341 6.74621 6.74688 6.74688 6.74918 6.75452 6.75452 6.75803 6.76072 6.76602
 6.76714 6.76714 6.76743 6.77736 6.77818 6.77818 6.78420 6.78837 6.78837 6.78868
 6.78925 6.79215 6.81743 6.82244 6.85122 6.85188 6.85333 6.85333 6.85697 6.86515
 6.86515 6.86823 6.86823 6.87110 6.87369 6.87369 6.87606 6.87694 6.87719 6.87835
 6.87835 6.87902 6.88619 6.89585 6.89617 6.89617 6.89729 6.90260 6.90260 6.90856
 6.90857 6.90857 6.90945 6.90958 6.91044 6.91044 6.91546 6.91763 6.91763 6.92154
 6.92334 6.92371 6.92371 6.92511 6.93286 6.99589 7.01109 7.01109 7.02439 7.02443
 7.02466 7.02566 7.02566 7.02961 7.02994 7.02994 7.04144 7.04887 7.05346 7.06147
 7.06147 7.10079 7.10505 7.11289 7.11289 7.11546 7.16177 7.17046 7.17878 7.18111
 7.18471 7.18471 7.18760 7.18786 7.19032 7.19032 7.21668 7.22475 7.23761 7.23771
 7.23771 7.23932 7.26819 7.27613 7.27742 7.27742 7.27836 7.28005 7.28410 7.28465
 7.28499 7.28499 7.28912 7.31844 7.31844 7.32200 7.34112 7.34112 7.35468 7.39832
 7.41385 7.44430 7.46894 7.49654 7.49654 7.65748 22.55115 43.60156 43.81452 43.82324
 43.82324 43.82797 43.84041 43.84320 43.84683 43.84683 43.85536 43.86338 43.86499 43.86499
 43.89837 43.98728 43.98728 43.98973 44.01212 44.03505 44.03505 44.03591 44.03953 44.03961
 44.04279 44.04279 44.04579 44.05446 44.05446 44.05585 44.05781 44.21220 44.32012 44.34277

 ---------------------------------------------------------------------------
 VBM is at 0-th k-point with -2.46932 eV
 CBM is at 0-th k-point with 0.49506 eV
 Band gap is 2.96438 eV


           Ground-State Mulliken Net Atomic Charges

      Atom                 Charge (a.u.)          Spin (a.u.)
   --------------------------------------------------------
      1  C              (-0.088352,-0.000000)    (0.000000,0.000000)
      2 Mg               (1.144837,-0.000000)    (0.000000,0.000000)
      3 Mg               (1.266352,-0.000000)    (0.000000,0.000000)
      4 Mg               (1.237857,-0.000000)    (0.000000,0.000000)
      5 Mg               (1.237851,-0.000000)    (0.000000,0.000000)
      6 Mg               (1.237863,-0.000000)    (0.000000,0.000000)
      7 Mg               (1.237862,-0.000000)    (0.000000,0.000000)
      8 Mg               (1.266356,-0.000000)    (0.000000,0.000000)
      9 Mg               (1.237848,-0.000000)    (0.000000,0.000000)
     10 Mg               (1.266351,-0.000000)    (0.000000,0.000000)
     11 Mg               (1.237855,-0.000000)    (0.000000,0.000000)
     12 Mg               (1.144827,-0.000000)    (0.000000,0.000000)
     13 Mg               (1.266356,-0.000000)    (0.000000,0.000000)
     14 Mg               (1.237854,-0.000000)    (0.000000,0.000000)
     15 Mg               (1.144829,-0.000000)    (0.000000,0.000000)
     16 Mg               (1.237856,-0.000000)    (0.000000,0.000000)
     17 Mg               (1.144825,-0.000000)    (0.000000,0.000000)
     18 Mg               (4.468123,-0.000000)    (0.000000,0.000000)
     19 Mg               (1.287931,-0.000000)    (0.000000,0.000000)
     20 Mg               (1.247675,-0.000000)    (0.000000,0.000000)
     21 Mg               (0.911784,-0.000000)    (0.000000,0.000000)
     22 Mg               (1.287935,-0.000000)    (0.000000,0.000000)
     23 Mg               (0.911789,-0.000000)    (0.000000,0.000000)
     24 Mg               (1.355415,-0.000000)    (0.000000,0.000000)
     25 Mg               (1.581537,-0.000000)    (0.000000,0.000000)
     26 Mg               (1.355415,-0.000000)    (0.000000,0.000000)
     27 Mg               (1.355416,-0.000000)    (0.000000,0.000000)
     28 Mg               (1.287917,-0.000000)    (0.000000,0.000000)
     29 Mg               (0.911768,-0.000000)    (0.000000,0.000000)
     30 Mg               (1.287900,-0.000000)    (0.000000,0.000000)
     31 Mg               (1.355407,-0.000000)    (0.000000,0.000000)
     32 Mg               (1.581502,-0.000000)    (0.000000,0.000000)
     33 Mg               (0.911792,-0.000000)    (0.000000,0.000000)
     34  O              (-1.337494,-0.000000)    (0.000000,0.000000)
     35  O              (-1.334745,-0.000000)    (0.000000,0.000000)
     36  O              (-1.330265,-0.000000)    (0.000000,0.000000)
     37  O              (-1.334746,-0.000000)    (0.000000,0.000000)
     38  O              (-1.334745,-0.000000)    (0.000000,0.000000)
     39  O              (-1.334799,-0.000000)    (0.000000,0.000000)
     40  O              (-1.334505,-0.000000)    (0.000000,0.000000)
     41  O              (-1.334505,-0.000000)    (0.000000,0.000000)
     42  O              (-1.334505,-0.000000)    (0.000000,0.000000)
     43  O              (-1.337491,-0.000000)    (0.000000,0.000000)
     44  O              (-1.334505,-0.000000)    (0.000000,0.000000)
     45  O              (-1.337492,-0.000000)    (0.000000,0.000000)
     46  O              (-1.330266,-0.000000)    (0.000000,0.000000)
     47  O              (-1.343475,-0.000000)    (0.000000,0.000000)
     48  O              (-1.337493,-0.000000)    (0.000000,0.000000)
     49  O              (-1.334747,-0.000000)    (0.000000,0.000000)
     50  O              (-1.316426,-0.000000)    (0.000000,0.000000)
     51  O              (-1.317550,-0.000000)    (0.000000,0.000000)
     52  O              (-1.317549,-0.000000)    (0.000000,0.000000)
     53  O              (-1.317551,-0.000000)    (0.000000,0.000000)
     54  O              (-1.316426,-0.000000)    (0.000000,0.000000)
     55  O              (-1.317549,-0.000000)    (0.000000,0.000000)
     56  O              (-1.317550,-0.000000)    (0.000000,0.000000)
     57  O              (-1.317550,-0.000000)    (0.000000,0.000000)
     58  O              (-1.351974,-0.000000)    (0.000000,0.000000)
     59  O              (-1.351974,-0.000000)    (0.000000,0.000000)
     60  O              (-1.317550,-0.000000)    (0.000000,0.000000)
     61  O              (-1.317550,-0.000000)    (0.000000,0.000000)
     62  O              (-1.351976,-0.000000)    (0.000000,0.000000)
     63  O              (-1.351975,-0.000000)    (0.000000,0.000000)
     64  O              (-1.316426,-0.000000)    (0.000000,0.000000)
     65  O              (-1.316425,-0.000000)    (0.000000,0.000000)
     66  O               (0.021244,-0.000000)    (0.000000,0.000000)
   --------------------------------------------------------
  Sum of atomic charges =     (-0.000000,-0.000000)
  Sum of spin   charges =       (0.000000,0.000000)



 Total job time:  2190.98 s.
 Wed Sep 17 11:53:00 2025


        *************************************************************
        *                                                           *
        *  Thank you very much for using QCPBC. Have a nice day.    *
        *                                                           *
        *************************************************************

Running job 1 of 1
